 vasp.6.5.1 10Mar25 (build Apr 08 2025 20:07:02) complex                        
  
 executed on             LinuxIFC date 2025.06.07  20:24:49
 running   32 mpi-ranks, on    1 nodes
 distrk:  each k-point on   32 cores,    1 groups
 distr:  one band on NCORE=   1 cores,   32 groups


--------------------------------------------------------------------------------------------------------


 INCAR:
   SYSTEM = CrCl3 static
   ENCUT = 400
   EDIFF = 1E-5
   PREC = Normal
   ISMEAR = 0
   SIGMA = 0.1
   ISPIN = 2
   MAGMOM = 2*3.0 6*0.6
   LCHARG = .TRUE.
   LWAVE = .TRUE.
   IBRION = -1
   NSW = 0
   NCORES = 4

 POTCAR:    PAW_PBE Cr 06Sep2000                  
 POTCAR:    PAW_PBE Cl 06Sep2000                  
 -----------------------------------------------------------------------------
|                                                                             |
|           W    W    AA    RRRRR   N    N  II  N    N   GGGG   !!!           |
|           W    W   A  A   R    R  NN   N  II  NN   N  G    G  !!!           |
|           W    W  A    A  R    R  N N  N  II  N N  N  G       !!!           |
|           W WW W  AAAAAA  RRRRR   N  N N  II  N  N N  G  GGG   !            |
|           WW  WW  A    A  R   R   N   NN  II  N   NN  G    G                |
|           W    W  A    A  R    R  N    N  II  N    N   GGGG   !!!           |
|                                                                             |
|     For optimal performance we recommend to set                             |
|       NCORE = 2 up to number-of-cores-per-socket                            |
|     NCORE specifies how many cores store one orbital (NPAR=cpu/NCORE).      |
|     This setting can greatly improve the performance of VASP for DFT.       |
|     The default, NCORE=1 might be grossly inefficient on modern             |
|     multi-core architectures or massively parallel machines. Do your        |
|     own testing! More info at https://www.vasp.at/wiki/index.php/NCORE      |
|     Unfortunately you need to use the default for GW and RPA                |
|     calculations (for HF NCORE is supported but not extensively tested      |
|     yet).                                                                   |
|                                                                             |
 -----------------------------------------------------------------------------

 POTCAR:    PAW_PBE Cr 06Sep2000                  
   SHA256 =  56e7271fac8042f322b235801e26979132a24da65eb043fa6a03029023cb2fcc Cr/POTCAR             
   COPYR  = (c) Copyright 06Sep2000 Georg Kresse                                                    
   COPYR  = This file is part of the software VASP. Any use, copying, and all other rights are regul
   COPYR  = If you do not have a valid VASP license, you may not use, copy or distribute this file. 
   VRHFIN =Cr : d5 s1                                                                               
   LEXCH  = PE                                                                                      
   EATOM  =   276.8859 eV,   20.3505 Ry                                                             
                                                                                                    
   TITEL  = PAW_PBE Cr 06Sep2000                                                                    
   LULTRA =        F    use ultrasoft PP ?                                                          
   IUNSCR =        1    unscreen: 0-lin 1-nonlin 2-no                                               
   RPACOR =    2.080    partial core radius                                                         
   POMASS =   51.996; ZVAL   =    6.000    mass and valenz                                          
   RCORE  =    2.500    outmost cutoff radius                                                       
   RWIGS  =    2.500; RWIGS  =    1.323    wigner-seitz radius (au A)                               
   ENMAX  =  227.080; ENMIN  =  170.310 eV                                                          
   RCLOC  =    1.721    cutoff for local pot                                                        
   LCOR   =        T    correct aug charges                                                         
   LPAW   =        T    paw PP                                                                      
   EAUG   =  402.108                                                                                
   DEXC   =    0.000                                                                                
   RMAX   =    2.552    core radius for proj-oper                                                   
   RAUG   =    1.300    factor for augmentation sphere                                              
   RDEP   =    2.609    radius for radial grids                                                     
   RDEPT  =    2.065    core radius for aug-charge                                                  
                                                                                                    
   Atomic configuration                                                                             
    9 entries                                                                                       
     n  l   j            E        occ.                                                              
     1  0  0.50     -5880.4963   2.0000                                                             
     2  0  0.50      -667.0865   2.0000                                                             
     2  1  1.50      -560.6250   6.0000                                                             
     3  0  0.50       -73.9860   2.0000                                                             
     3  1  1.50       -45.4378   6.0000                                                             
     3  2  2.50        -2.9137   5.0000                                                             
     4  0  0.50        -4.0071   1.0000                                                             
     4  1  0.50        -1.2789   0.0000                                                             
     4  3  2.50        -1.3606   0.0000                                                             
   Description                                                                                      
     l       E           TYP  RCUT    TYP  RCUT                                                     
     2     -2.9136677     23  2.500                                                                 
     2     -4.2742503     23  2.500                                                                 
     0     -4.0071322     23  2.500                                                                 
     0      9.4498801     23  2.500                                                                 
     1     -5.4423304     23  2.500                                                                 
     1     27.2116520     23  2.500                                                                 
  local pseudopotential read in
  partial core-charges read in
  partial kinetic energy density read in
  atomic valenz-charges read in
  non local Contribution for L=           2  read in
    real space projection operators read in
  non local Contribution for L=           2  read in
    real space projection operators read in
  non local Contribution for L=           0  read in
    real space projection operators read in
  non local Contribution for L=           0  read in
    real space projection operators read in
  non local Contribution for L=           1  read in
    real space projection operators read in
  non local Contribution for L=           1  read in
    real space projection operators read in
    PAW grid and wavefunctions read in
 
   number of l-projection  operators is LMAX  =           6
   number of lm-projection operators is LMMAX =          18
 
 POTCAR:    PAW_PBE Cl 06Sep2000                  
   SHA256 =  9f1b6e6ed4247ac726a768b330d26d7667cc3c95a39ff49c1d064c2d9dcce931 Cl/POTCAR             
   COPYR  = (c) Copyright 06Sep2000 Georg Kresse                                                    
   COPYR  = This file is part of the software VASP. Any use, copying, and all other rights are regul
   COPYR  = If you do not have a valid VASP license, you may not use, copy or distribute this file. 
   VRHFIN =Cl: s2p5                                                                                 
   LEXCH  = PE                                                                                      
   EATOM  =   409.7259 eV,   30.1140 Ry                                                             
                                                                                                    
   TITEL  = PAW_PBE Cl 06Sep2000                                                                    
   LULTRA =        F    use ultrasoft PP ?                                                          
   IUNSCR =        1    unscreen: 0-lin 1-nonlin 2-no                                               
   RPACOR =    1.500    partial core radius                                                         
   POMASS =   35.453; ZVAL   =    7.000    mass and valenz                                          
   RCORE  =    1.900    outmost cutoff radius                                                       
   RWIGS  =    2.100; RWIGS  =    1.111    wigner-seitz radius (au A)                               
   ENMAX  =  262.472; ENMIN  =  196.854 eV                                                          
   ICORE  =        2    local potential                                                             
   LCOR   =        T    correct aug charges                                                         
   LPAW   =        T    paw PP                                                                      
   EAUG   =  356.192                                                                                
   DEXC   =    0.000                                                                                
   RMAX   =    1.945    core radius for proj-oper                                                   
   RAUG   =    1.300    factor for augmentation sphere                                              
   RDEP   =    2.020    radius for radial grids                                                     
   RDEPT  =    1.678    core radius for aug-charge                                                  
                                                                                                    
   Atomic configuration                                                                             
    6 entries                                                                                       
     n  l   j            E        occ.                                                              
     1  0  0.50     -2751.1850   2.0000                                                             
     2  0  0.50      -252.6861   2.0000                                                             
     2  1  1.50      -191.6157   6.0000                                                             
     3  0  0.50       -20.6916   2.0000                                                             
     3  1  0.50        -8.5949   5.0000                                                             
     3  2  1.50        -8.1635   0.0000                                                             
   Description                                                                                      
     l       E           TYP  RCUT    TYP  RCUT                                                     
     0    -20.6915656     23  1.900                                                                 
     0    -22.0521482     23  1.900                                                                 
     1     -8.5948577     23  1.900                                                                 
     1     -5.3847331     23  1.900                                                                 
     2     -8.1634956     23  1.900                                                                 
  local pseudopotential read in
  partial core-charges read in
  partial kinetic energy density read in
  atomic valenz-charges read in
  non local Contribution for L=           0  read in
    real space projection operators read in
  non local Contribution for L=           0  read in
    real space projection operators read in
  non local Contribution for L=           1  read in
    real space projection operators read in
  non local Contribution for L=           1  read in
    real space projection operators read in
    PAW grid and wavefunctions read in
 
   number of l-projection  operators is LMAX  =           4
   number of lm-projection operators is LMMAX =           8
 
  PAW_PBE Cr 06Sep2000                  :
 energy of atom  1       EATOM= -276.8859
 kinetic energy error for atom=    0.0018 (will be added to EATOM!!)
  PAW_PBE Cl 06Sep2000                  :
 energy of atom  2       EATOM= -409.7259
 kinetic energy error for atom=    0.0089 (will be added to EATOM!!)
 
 
 POSCAR: 
 -----------------------------------------------------------------------------
|                                                                             |
|           W    W    AA    RRRRR   N    N  II  N    N   GGGG   !!!           |
|           W    W   A  A   R    R  NN   N  II  NN   N  G    G  !!!           |
|           W    W  A    A  R    R  N N  N  II  N N  N  G       !!!           |
|           W WW W  AAAAAA  RRRRR   N  N N  II  N  N N  G  GGG   !            |
|           WW  WW  A    A  R   R   N   NN  II  N   NN  G    G                |
|           W    W  A    A  R    R  N    N  II  N    N   GGGG   !!!           |
|                                                                             |
|     Inconsistent Bravais lattice types found for crystalline and            |
|     reciprocal lattice:                                                     |
|                                                                             |
|        Crystalline: base-centered monoclinic                                |
|        Reciprocal : triclinic                                               |
|                    (instead of base-centered monoclinic)                    |
|                                                                             |
|     In most cases this is due to inaccuracies in the specification of       |
|     the crytalline lattice vectors.                                         |
|                                                                             |
|     Suggested SOLUTIONS:                                                    |
|      ) Refine the lattice parameters of your structure,                     |
|      ) and/or try changing SYMPREC.                                         |
|                                                                             |
 -----------------------------------------------------------------------------

  positions in direct lattice
  velocities in cartesian coordinates


 exchange-correlation table for PE
   RHO(1)=    0.500       N(1)  =     2000
   RHO(2)=  100.500       N(2)  =     4000
 


--------------------------------------------------------------------------------------------------------


 ion  position               nearest neighbor table
   1  0.667  0.333  0.500-   3 2.37   8 2.37   5 2.37   7 2.37   4 2.37   6 2.37
   2  1.000  0.000  0.500-   7 2.37   5 2.37   3 2.37   8 2.37   4 2.37   6 2.37
   3  0.333  0.029  0.558-   1 2.37   2 2.37
   4  0.971  0.305  0.558-   2 2.37   1 2.37
   5  0.696  0.666  0.558-   2 2.37   1 2.37
   6  0.695  0.029  0.442-   2 2.37   1 2.37
   7  0.334  0.304  0.442-   2 2.37   1 2.37
   8  0.971  0.667  0.442-   1 2.37   2 2.37
 
  LATTYP: Found a base centered monoclinic cell.
 ALAT       =    46.0522173584
 B/A-ratio  =     0.2315140720
 C/A-ratio  =     0.4954947411
 COS(beta)  =    -0.9910458493
  
  Lattice vectors:
  
 A1 = (  -6.1563980000,  -0.0015340000, -22.8192420000)
 A2 = (   3.0771110000,  -5.3321000000, -22.8193060000)
 A3 = (   0.0023100000,   0.0042790000,  22.8186310000)


Analysis of symmetry for initial positions (statically):
=====================================================================
 Subroutine PRICEL returns:
 Original cell was already a primitive cell.
 

 Routine SETGRP: Setting up the symmetry group for a 
 base centered monoclinic supercell.


 Subroutine GETGRP returns: Found  1 space group operations
 (whereof  1 operations were pure point group operations)
 out of a pool of  4 trial point group operations.


The static configuration has the point symmetry C_1 .


Analysis of symmetry for dynamics (positions and initial velocities):
=====================================================================
 Subroutine PRICEL returns:
 Original cell was already a primitive cell.
 

 Routine SETGRP: Setting up the symmetry group for a 
 base centered monoclinic supercell.


 Subroutine GETGRP returns: Found  1 space group operations
 (whereof  1 operations were pure point group operations)
 out of a pool of  4 trial point group operations.


The dynamic configuration has the point symmetry C_1 .


Analysis of structural, dynamic, and magnetic symmetry:
=====================================================================
 Subroutine PRICEL returns:
 Original cell was already a primitive cell.
 

 Routine SETGRP: Setting up the symmetry group for a 
 base centered monoclinic supercell.


 Subroutine GETGRP returns: Found  1 space group operations
 (whereof  1 operations were pure point group operations)
 out of a pool of  4 trial point group operations.


The overall configuration has the point symmetry C_1 .


 Subroutine INISYM returns: Found  1 space group operations
 (whereof  1 operations are pure point group operations),
 and found     1 'primitive' translations


----------------------------------------------------------------------------------------

                                     Primitive cell                                     

  volume of cell :     747.9816

  direct lattice vectors                    reciprocal lattice vectors
     6.154088000 -0.002745000  0.000611000     0.162535521  0.093943719 -0.000034071
    -3.079421000  5.327821000  0.000675000     0.000083745  0.187742402 -0.000035214
     0.002310000  0.004279000 22.818631000    -0.000004355 -0.000008069  0.043823840

  length of vectors
     6.154088643  6.153739575 22.818631518     0.187731774  0.187742424  0.043823841

  position of ions in fractional coordinates (direct lattice)
     0.666677028  0.333310611  0.500000695
     0.999989260  0.000021870  0.500000530
     0.333113150  0.029071810  0.557998187
     0.971390735  0.304732769  0.557849020
     0.695759454  0.666447055  0.558003728
     0.695276901  0.028595863  0.442150097
     0.333556670  0.304266304  0.442000817
     0.970904157  0.666881836  0.441995401

  ion indices of the primitive-cell ions
   primitive index   ion index
                 1           1
                 2           2
                 3           3
                 4           4
                 5           5
                 6           6
                 7           7
                 8           8

----------------------------------------------------------------------------------------

 
 
 KPOINTS: Automatic mesh                          

Automatic generation of k-mesh.
 Grid dimensions read from file:
 generate k-points for:    6    6    4

 Generating k-lattice:

  Cartesian coordinates                     Fractional coordinates (reciprocal lattice)
     0.027089253  0.015657286 -0.000005678     0.166666667 -0.000000000  0.000000000
     0.000013958  0.031290400 -0.000005869     0.000000000  0.166666667  0.000000000
    -0.000001089 -0.000002017  0.010955960     0.000000000 -0.000000000  0.250000000

  Length of vectors
     0.031288629  0.031290404  0.010955960

  Shift w.r.t. Gamma in fractional coordinates (k-lattice)
     0.500000000  0.500000000  0.500000000

 
 Subroutine IBZKPT returns following result:
 ===========================================
 
 Found     72 irreducible k-points:
 
 Following reciprocal coordinates:
            Coordinates               Weight
  0.083333  0.083333  0.125000      2.000000
  0.250000  0.083333  0.125000      2.000000
  0.416667  0.083333  0.125000      2.000000
 -0.416667  0.083333  0.125000      2.000000
 -0.250000  0.083333  0.125000      2.000000
 -0.083333  0.083333  0.125000      2.000000
  0.083333  0.250000  0.125000      2.000000
  0.250000  0.250000  0.125000      2.000000
  0.416667  0.250000  0.125000      2.000000
 -0.416667  0.250000  0.125000      2.000000
 -0.250000  0.250000  0.125000      2.000000
 -0.083333  0.250000  0.125000      2.000000
  0.083333  0.416667  0.125000      2.000000
  0.250000  0.416667  0.125000      2.000000
  0.416667  0.416667  0.125000      2.000000
 -0.416667  0.416667  0.125000      2.000000
 -0.250000  0.416667  0.125000      2.000000
 -0.083333  0.416667  0.125000      2.000000
  0.083333 -0.416667  0.125000      2.000000
  0.250000 -0.416667  0.125000      2.000000
  0.416667 -0.416667  0.125000      2.000000
 -0.416667 -0.416667  0.125000      2.000000
 -0.250000 -0.416667  0.125000      2.000000
 -0.083333 -0.416667  0.125000      2.000000
  0.083333 -0.250000  0.125000      2.000000
  0.250000 -0.250000  0.125000      2.000000
  0.416667 -0.250000  0.125000      2.000000
 -0.416667 -0.250000  0.125000      2.000000
 -0.250000 -0.250000  0.125000      2.000000
 -0.083333 -0.250000  0.125000      2.000000
  0.083333 -0.083333  0.125000      2.000000
  0.250000 -0.083333  0.125000      2.000000
  0.416667 -0.083333  0.125000      2.000000
 -0.416667 -0.083333  0.125000      2.000000
 -0.250000 -0.083333  0.125000      2.000000
 -0.083333 -0.083333  0.125000      2.000000
  0.083333  0.083333  0.375000      2.000000
  0.250000  0.083333  0.375000      2.000000
  0.416667  0.083333  0.375000      2.000000
 -0.416667  0.083333  0.375000      2.000000
 -0.250000  0.083333  0.375000      2.000000
 -0.083333  0.083333  0.375000      2.000000
  0.083333  0.250000  0.375000      2.000000
  0.250000  0.250000  0.375000      2.000000
  0.416667  0.250000  0.375000      2.000000
 -0.416667  0.250000  0.375000      2.000000
 -0.250000  0.250000  0.375000      2.000000
 -0.083333  0.250000  0.375000      2.000000
  0.083333  0.416667  0.375000      2.000000
  0.250000  0.416667  0.375000      2.000000
  0.416667  0.416667  0.375000      2.000000
 -0.416667  0.416667  0.375000      2.000000
 -0.250000  0.416667  0.375000      2.000000
 -0.083333  0.416667  0.375000      2.000000
  0.083333 -0.416667  0.375000      2.000000
  0.250000 -0.416667  0.375000      2.000000
  0.416667 -0.416667  0.375000      2.000000
 -0.416667 -0.416667  0.375000      2.000000
 -0.250000 -0.416667  0.375000      2.000000
 -0.083333 -0.416667  0.375000      2.000000
  0.083333 -0.250000  0.375000      2.000000
  0.250000 -0.250000  0.375000      2.000000
  0.416667 -0.250000  0.375000      2.000000
 -0.416667 -0.250000  0.375000      2.000000
 -0.250000 -0.250000  0.375000      2.000000
 -0.083333 -0.250000  0.375000      2.000000
  0.083333 -0.083333  0.375000      2.000000
  0.250000 -0.083333  0.375000      2.000000
  0.416667 -0.083333  0.375000      2.000000
 -0.416667 -0.083333  0.375000      2.000000
 -0.250000 -0.083333  0.375000      2.000000
 -0.083333 -0.083333  0.375000      2.000000
 
 Following cartesian coordinates:
            Coordinates               Weight
  0.013551  0.023473  0.005472      2.000000
  0.040640  0.039130  0.005467      2.000000
  0.067730  0.054787  0.005461      2.000000
 -0.067717 -0.023499  0.005489      2.000000
 -0.040627 -0.007842  0.005484      2.000000
 -0.013538  0.007816  0.005478      2.000000
  0.013565  0.054763  0.005466      2.000000
  0.040654  0.070421  0.005461      2.000000
  0.067744  0.086078  0.005455      2.000000
 -0.067703  0.007791  0.005483      2.000000
 -0.040613  0.023449  0.005478      2.000000
 -0.013524  0.039106  0.005472      2.000000
  0.013579  0.086054  0.005460      2.000000
  0.040668  0.101711  0.005455      2.000000
  0.067757  0.117368  0.005449      2.000000
 -0.067689  0.039082  0.005478      2.000000
 -0.040600  0.054739  0.005472      2.000000
 -0.013510  0.070396  0.005466      2.000000
  0.013509 -0.070398  0.005490      2.000000
  0.040598 -0.054741  0.005484      2.000000
  0.067688 -0.039084  0.005478      2.000000
 -0.067759 -0.117370  0.005507      2.000000
 -0.040669 -0.101713  0.005501      2.000000
 -0.013580 -0.086056  0.005495      2.000000
  0.013523 -0.039108  0.005484      2.000000
  0.040612 -0.023451  0.005478      2.000000
  0.067702 -0.007793  0.005473      2.000000
 -0.067745 -0.086080  0.005501      2.000000
 -0.040655 -0.070423  0.005495      2.000000
 -0.013566 -0.054765  0.005490      2.000000
  0.013537 -0.007818  0.005478      2.000000
  0.040626  0.007840  0.005472      2.000000
  0.067716  0.023497  0.005467      2.000000
 -0.067731 -0.054789  0.005495      2.000000
 -0.040641 -0.039132  0.005489      2.000000
 -0.013552 -0.023475  0.005484      2.000000
  0.013550  0.023471  0.016428      2.000000
  0.040639  0.039128  0.016422      2.000000
  0.067728  0.054785  0.016417      2.000000
 -0.067718 -0.023501  0.016445      2.000000
 -0.040629 -0.007844  0.016440      2.000000
 -0.013539  0.007814  0.016434      2.000000
  0.013564  0.054761  0.016422      2.000000
  0.040653  0.070419  0.016417      2.000000
  0.067742  0.086076  0.016411      2.000000
 -0.067704  0.007789  0.016439      2.000000
 -0.040615  0.023447  0.016434      2.000000
 -0.013525  0.039104  0.016428      2.000000
  0.013578  0.086052  0.016416      2.000000
  0.040667  0.101709  0.016411      2.000000
  0.067756  0.117366  0.016405      2.000000
 -0.067690  0.039080  0.016433      2.000000
 -0.040601  0.054737  0.016428      2.000000
 -0.013511  0.070394  0.016422      2.000000
  0.013508 -0.070400  0.016446      2.000000
  0.040597 -0.054743  0.016440      2.000000
  0.067687 -0.039086  0.016434      2.000000
 -0.067760 -0.117372  0.016463      2.000000
 -0.040670 -0.101715  0.016457      2.000000
 -0.013581 -0.086058  0.016451      2.000000
  0.013522 -0.039110  0.016440      2.000000
  0.040611 -0.023453  0.016434      2.000000
  0.067701 -0.007795  0.016429      2.000000
 -0.067746 -0.086082  0.016457      2.000000
 -0.040656 -0.070425  0.016451      2.000000
 -0.013567 -0.054767  0.016446      2.000000
  0.013536 -0.007820  0.016434      2.000000
  0.040625  0.007838  0.016428      2.000000
  0.067715  0.023495  0.016423      2.000000
 -0.067732 -0.054791  0.016451      2.000000
 -0.040642 -0.039134  0.016445      2.000000
 -0.013553 -0.023477  0.016440      2.000000
 


--------------------------------------------------------------------------------------------------------




 Dimension of arrays:
   k-points           NKPTS =     72   k-points in BZ     NKDIM =     72   number of bands    NBANDS=     64
   number of dos      NEDOS =    301   number of ions     NIONS =      8
   non local maximal  LDIM  =      6   non local SUM 2l+1 LMDIM =     18
   total plane-waves  NPLWV = 100800
   max r-space proj   IRMAX =      1   max aug-charges    IRDMAX=   7083
   dimension x,y,z NGX =    30 NGY =   30 NGZ =  112
   dimension x,y,z NGXF=    60 NGYF=   60 NGZF=  224
   support grid    NGXF=    60 NGYF=   60 NGZF=  224
   ions per type =               2   6
   NGX,Y,Z   is equivalent  to a cutoff of   8.10,  8.10,  8.16 a.u.
   NGXF,Y,Z  is equivalent  to a cutoff of  16.21, 16.21, 16.32 a.u.

 SYSTEM =  CrCl3 static                            
 POSCAR =                                          

 Startparameter for this run:
   NWRITE =      2    write-flag & timer
   PREC   = normal    normal or accurate (medium, high low for compatibility)
   ISTART =      0    job   : 0-new  1-cont  2-samecut
   ICHARG =      2    charge: 1-file 2-atom 10-const
   ISPIN  =      2    spin polarized calculation?
   LNONCOLLINEAR =      F non collinear calculations
   LSORBIT =      F    spin-orbit coupling
   INIWAV =      1    electr: 0-lowe 1-rand  2-diag
   LASPH  =      F    aspherical Exc in radial PAW
 Electronic Relaxation 1
   ENCUT  =  400.0 eV  29.40 Ry    5.42 a.u.  10.04 10.04 37.21*2*pi/ulx,y,z
   ENINI  =  400.0     initial cutoff
   ENAUG  =  402.1 eV  augmentation charge cutoff
   NELM   =     60;   NELMIN=  2; NELMDL=  0     # of ELM steps 
   EDIFF  = 0.1E-04   stopping-criterion for ELM
   LREAL  =      F    real-space projection
   NLSPLINE    = F    spline interpolate recip. space projectors
   LCOMPAT=      F    compatible to vasp.4.4
   GGA_COMPAT  = T    GGA compatible to vasp.4.4-vasp.4.6
   LMAXPAW     = -100 max onsite density
   LMAXMIX     =    2 max onsite mixed and CHGCAR
   VOSKOWN=      0    Vosko Wilk Nusair interpolation
   ROPT   =    0.00000   0.00000
 Ionic relaxation
   EDIFFG = 0.1E-03   stopping-criterion for IOM
   NSW    =      0    number of steps for IOM
   NBLOCK =      1;   KBLOCK =      1    inner block; outer block 
   IBRION =     -1    ionic relax: 0-MD 1-quasi-New 2-CG
   NFREE  =      0    steps in history (QN), initial steepest desc. (CG)
   ISIF   =      2    stress and relaxation
   IWAVPR =     10    prediction:  0-non 1-charg 2-wave 3-comb
   ISYM   =      2    0-nonsym 1-usesym 2-fastsym
   LCORR  =      T    Harris-Foulkes like correction to forces

   POTIM  = 0.5000    time-step for ionic-motion
   TEIN   =    0.0    initial temperature
   TEBEG  =    0.0;   TEEND  =   0.0 temperature during run
   SMASS  =  -3.00    Nose mass-parameter (am)
   estimated Nose-frequenzy (Omega)   =  0.10E-29 period in steps = 0.13E+47 mass=  -0.865E-27a.u.
   SCALEE = 1.0000    scale energy and forces
   NPACO  =    256;   APACO  = 10.0  distance and # of slots for P.C.
   PSTRESS=    0.0 pullay stress

  Mass of Ions in am
   POMASS =  52.00 35.45
  Ionic Valenz
   ZVAL   =   6.00  7.00
  Atomic Wigner-Seitz radii
   RWIGS  =  -1.00 -1.00
  virtual crystal weights 
   VCA    =   1.00  1.00
   NELECT =      54.0000    total number of electrons
   NUPDOWN=      -1.0000    fix difference up-down

 DOS related values:
   EMIN   =  10.00;   EMAX   =-10.00  energy-range for DOS
   EFERMI =   0.00;   METHOD = LEGACY      
   ISMEAR =     0;   SIGMA  =   0.10  broadening in eV -4-tet -1-fermi 0-gaus
   EFERMI_NEDOS =   21; number of points for ismear=-14 and -15

 Electronic relaxation 2 (details)
   IALGO  =     38    algorithm
   LDIAG  =      T    sub-space diagonalisation (order eigenvalues)
   LSUBROT=      F    optimize rotation matrix (better conditioning)
   LROBUST=      F    robust break criterion during scf (extrapolated energy error)
   ISEARCH=      0    line search for conjugate gradient (0, 1=use gradient)
   TURBO    =      0    0=normal 1=particle mesh
   IRESTART =      0    0=no restart 2=restart with 2 vectors
   NREBOOT  =      0    no. of reboots
   NMIN     =      0    reboot dimension
   EREF     =   0.00    reference energy to select bands
   IMIX   =      4    mixing-type and parameters
     AMIX     =   0.40;   BMIX     =  1.00
     AMIX_MAG =   1.60;   BMIX_MAG =  1.00
     AMIN     =   0.10
     WC   =   100.;   INIMIX=   1;  MIXPRE=   1;  MAXMIX= -45

 Intra band minimization:
   WEIMIN = 0.0000     energy-eigenvalue tresh-hold
   EBREAK =  0.39E-07  absolut break condition
   DEPER  =   0.30     relativ break condition  

   TIME   =   0.40     timestep for ELM

  volume/ion in A,a.u.               =      93.50       630.95
  Fermi-wavevector in a.u.,A,eV,Ry     =   0.681673  1.288174  6.322320  0.464677
  Thomas-Fermi vector in A             =   1.760523
 
 Write flags
   LWAVE        =      T    write WAVECAR
   LDOWNSAMPLE  =      F    k-point downsampling of WAVECAR
   LCHARG       =      T    write CHGCAR
   LVTOT        =      F    write LOCPOT, total local potential
   LVHAR        =      F    write LOCPOT, Hartree potential only
   WRT_POTENTIAL= false  ! write potential to hdf5 file
   LELF         =      F    write electronic localiz. function (ELF)
   LORBIT       =      0    0 simple, 1 ext, 2 COOP (PROOUT), +10 PAW based schemes


 Python interface
   PLUGINS active      =      F    recompile with -DPLUGINS to activate
 
 Dipole corrections
   LMONO      =      F    monopole corrections only (constant potential shift)
   LDIPOL     =      F    correct potential (dipole corrections)
   IDIPOL     =      0    1-x, 2-y, 3-z, 4-all directions 
   EPSILON    =  1.0000000 bulk dielectric constant
   LVACPOTAV  =      F  vacuum potentials using an averaging scheme for the charge density
   VACPOTFLAT =  0.1000000 required flatness to determine vacuum potential
 
Coulomb truncation method
  LTRUNCATE          =      F  Coulomb kernel truncation to be used

 
 Exchange correlation treatment:
   GGA     = PE    functional components
   XC_C    = 1    coefficients multiplying the functional components
   LIBXC   =     F    Libxc                    
   VOSKOWN =     0    Vosko Wilk Nusair interpolation
   LHFCALC =     F    Hartree Fock is set to
   LHFONE  =     F    Hartree Fock one center treatment
   AEXX    =    0.0000 exact exchange contribution

 Parameters of functionals:
   PE:
     No parameter
 
 Van der Waals corrections
   IVDW    =     0    specifies the selected vdW correction

 Linear response parameters
   LEPSILON=     F    determine dielectric tensor
   LRPA    =     F    only Hartree local field effects (RPA)
   LNABLA  =     F    use nabla operator in PAW spheres
   LVEL    =     F    velocity operator in full k-point grid
   CSHIFT  =0.1000    complex shift for real part using Kramers Kronig
   OMEGAMAX=  -1.0    maximum frequency
   DEG_THRESHOLD= 0.2000000E-02 threshold for treating states as degnerate
   RTIME   =   -0.100 relaxation time in fs
  (WPLASMAI=    0.000 imaginary part of plasma frequency in eV, 0.658/RTIME)
   DFIELD  = 0.0000000 0.0000000 0.0000000 field for delta impulse in time
 
  Optional k-point grid parameters
   LKPOINTS_OPT  =     F    use optional k-point grid
   KPOINTS_OPT_MODE=     1    mode for optional k-point grid
 
 Orbital magnetization related:
   ORBITALMAG=     F  switch on orbital magnetization
   LCHIMAG   =     F  perturbation theory with respect to B field
   DQ        =  0.001000  dq finite difference perturbation B field
   LLRAUG    =     F  two centre corrections for induced B field
   LBONE     =     F  B-component reconstruction in AE one-centre
   LVGVCALC  =     T  calculate vGv susceptibility
   LVGVAPPL  =     F  apply vGv susceptibility instead of pGv for G=0

 Random number generation:
   RANDOM_GENERATOR = DEFAULT
   PCG_SEED         = not used


--------------------------------------------------------------------------------------------------------


 Static calculation
 charge density and potential will be updated during run
 spin polarized calculation
 Variant of blocked Davidson
 Davidson routine will perform the subspace rotation
 perform sub-space diagonalisation
    after iterative eigenvector-optimisation
 modified Broyden-mixing scheme, WC =      100.0
 initial mixing is a Kerker type mixing with AMIX =  0.4000 and BMIX =      1.0000
 Hartree-type preconditioning will be used
 using additional bands           37
 reciprocal scheme for non local part
 use partial core corrections
 calculate Harris-corrections to forces 
   (improved forces if not selfconsistent)
 use gradient corrections 
 use of overlap-Matrix (Vanderbilt PP)
 Gauss-broadening in eV      SIGMA  =   0.10


--------------------------------------------------------------------------------------------------------


  energy-cutoff  :      400.00
  volume of cell :      747.98
      direct lattice vectors                 reciprocal lattice vectors
     6.154088000 -0.002745000  0.000611000     0.162535521  0.093943719 -0.000034071
    -3.079421000  5.327821000  0.000675000     0.000083745  0.187742402 -0.000035214
     0.002310000  0.004279000 22.818631000    -0.000004355 -0.000008069  0.043823840

  length of vectors
     6.154088643  6.153739575 22.818631518     0.187731774  0.187742424  0.043823841


 
 k-points in units of 2pi/SCALE and weight: Automatic mesh                          
   0.01355106  0.02347283  0.00547221       0.014
   0.04064031  0.03913012  0.00546653       0.014
   0.06772957  0.05478741  0.00546085       0.014
  -0.06771670 -0.02349902  0.00548924       0.014
  -0.04062745 -0.00784174  0.00548356       0.014
  -0.01353819  0.00781555  0.00547788       0.014
   0.01356502  0.05476324  0.00546634       0.014
   0.04065427  0.07042052  0.00546066       0.014
   0.06774353  0.08607781  0.00545498       0.014
  -0.06770274  0.00779138  0.00548337       0.014
  -0.04061349  0.02344866  0.00547769       0.014
  -0.01352423  0.03910595  0.00547202       0.014
   0.01357898  0.08605364  0.00546047       0.014
   0.04066823  0.10171092  0.00545479       0.014
   0.06775748  0.11736821  0.00544911       0.014
  -0.06768878  0.03908178  0.00547750       0.014
  -0.04059953  0.05473906  0.00547183       0.014
  -0.01351028  0.07039635  0.00546615       0.014
   0.01350919 -0.07039837  0.00548981       0.014
   0.04059844 -0.05474108  0.00548414       0.014
   0.06768770 -0.03908379  0.00547846       0.014
  -0.06775857 -0.11737023  0.00550685       0.014
  -0.04066932 -0.10171294  0.00550117       0.014
  -0.01358006 -0.08605565  0.00549549       0.014
   0.01352315 -0.03910797  0.00548394       0.014
   0.04061240 -0.02345068  0.00547827       0.014
   0.06770165 -0.00779339  0.00547259       0.014
  -0.06774461 -0.08607983  0.00550098       0.014
  -0.04065536 -0.07042254  0.00549530       0.014
  -0.01356611 -0.05476525  0.00548962       0.014
   0.01353710 -0.00781757  0.00547808       0.014
   0.04062636  0.00783972  0.00547240       0.014
   0.06771561  0.02349701  0.00546672       0.014
  -0.06773066 -0.05478942  0.00549511       0.014
  -0.04064140 -0.03913214  0.00548943       0.014
  -0.01355215 -0.02347485  0.00548375       0.014
   0.01354997  0.02347082  0.01642817       0.014
   0.04063923  0.03912810  0.01642249       0.014
   0.06772848  0.05478539  0.01641681       0.014
  -0.06771779 -0.02350104  0.01644520       0.014
  -0.04062853 -0.00784376  0.01643952       0.014
  -0.01353928  0.00781353  0.01643384       0.014
   0.01356393  0.05476122  0.01642230       0.014
   0.04065318  0.07041850  0.01641662       0.014
   0.06774244  0.08607579  0.01641094       0.014
  -0.06770383  0.00778936  0.01643933       0.014
  -0.04061458  0.02344664  0.01643365       0.014
  -0.01352532  0.03910393  0.01642798       0.014
   0.01357789  0.08605162  0.01641643       0.014
   0.04066714  0.10170890  0.01641075       0.014
   0.06775639  0.11736619  0.01640507       0.014
  -0.06768987  0.03907976  0.01643346       0.014
  -0.04060062  0.05473705  0.01642779       0.014
  -0.01351137  0.07039433  0.01642211       0.014
   0.01350810 -0.07040038  0.01644577       0.014
   0.04059735 -0.05474310  0.01644010       0.014
   0.06768661 -0.03908581  0.01643442       0.014
  -0.06775966 -0.11737224  0.01646281       0.014
  -0.04067041 -0.10171496  0.01645713       0.014
  -0.01358115 -0.08605767  0.01645145       0.014
   0.01352206 -0.03910998  0.01643990       0.014
   0.04061131 -0.02345270  0.01643423       0.014
   0.06770056 -0.00779541  0.01642855       0.014
  -0.06774570 -0.08608184  0.01645694       0.014
  -0.04065645 -0.07042456  0.01645126       0.014
  -0.01356720 -0.05476727  0.01644558       0.014
   0.01353601 -0.00781958  0.01643404       0.014
   0.04062527  0.00783770  0.01642836       0.014
   0.06771452  0.02349499  0.01642268       0.014
  -0.06773175 -0.05479144  0.01645107       0.014
  -0.04064249 -0.03913416  0.01644539       0.014
  -0.01355324 -0.02347687  0.01643971       0.014
 
 k-points in reciprocal lattice and weights: Automatic mesh                          
   0.08333333  0.08333333  0.12500000       0.014
   0.25000000  0.08333333  0.12500000       0.014
   0.41666667  0.08333333  0.12500000       0.014
  -0.41666667  0.08333333  0.12500000       0.014
  -0.25000000  0.08333333  0.12500000       0.014
  -0.08333333  0.08333333  0.12500000       0.014
   0.08333333  0.25000000  0.12500000       0.014
   0.25000000  0.25000000  0.12500000       0.014
   0.41666667  0.25000000  0.12500000       0.014
  -0.41666667  0.25000000  0.12500000       0.014
  -0.25000000  0.25000000  0.12500000       0.014
  -0.08333333  0.25000000  0.12500000       0.014
   0.08333333  0.41666667  0.12500000       0.014
   0.25000000  0.41666667  0.12500000       0.014
   0.41666667  0.41666667  0.12500000       0.014
  -0.41666667  0.41666667  0.12500000       0.014
  -0.25000000  0.41666667  0.12500000       0.014
  -0.08333333  0.41666667  0.12500000       0.014
   0.08333333 -0.41666667  0.12500000       0.014
   0.25000000 -0.41666667  0.12500000       0.014
   0.41666667 -0.41666667  0.12500000       0.014
  -0.41666667 -0.41666667  0.12500000       0.014
  -0.25000000 -0.41666667  0.12500000       0.014
  -0.08333333 -0.41666667  0.12500000       0.014
   0.08333333 -0.25000000  0.12500000       0.014
   0.25000000 -0.25000000  0.12500000       0.014
   0.41666667 -0.25000000  0.12500000       0.014
  -0.41666667 -0.25000000  0.12500000       0.014
  -0.25000000 -0.25000000  0.12500000       0.014
  -0.08333333 -0.25000000  0.12500000       0.014
   0.08333333 -0.08333333  0.12500000       0.014
   0.25000000 -0.08333333  0.12500000       0.014
   0.41666667 -0.08333333  0.12500000       0.014
  -0.41666667 -0.08333333  0.12500000       0.014
  -0.25000000 -0.08333333  0.12500000       0.014
  -0.08333333 -0.08333333  0.12500000       0.014
   0.08333333  0.08333333  0.37500000       0.014
   0.25000000  0.08333333  0.37500000       0.014
   0.41666667  0.08333333  0.37500000       0.014
  -0.41666667  0.08333333  0.37500000       0.014
  -0.25000000  0.08333333  0.37500000       0.014
  -0.08333333  0.08333333  0.37500000       0.014
   0.08333333  0.25000000  0.37500000       0.014
   0.25000000  0.25000000  0.37500000       0.014
   0.41666667  0.25000000  0.37500000       0.014
  -0.41666667  0.25000000  0.37500000       0.014
  -0.25000000  0.25000000  0.37500000       0.014
  -0.08333333  0.25000000  0.37500000       0.014
   0.08333333  0.41666667  0.37500000       0.014
   0.25000000  0.41666667  0.37500000       0.014
   0.41666667  0.41666667  0.37500000       0.014
  -0.41666667  0.41666667  0.37500000       0.014
  -0.25000000  0.41666667  0.37500000       0.014
  -0.08333333  0.41666667  0.37500000       0.014
   0.08333333 -0.41666667  0.37500000       0.014
   0.25000000 -0.41666667  0.37500000       0.014
   0.41666667 -0.41666667  0.37500000       0.014
  -0.41666667 -0.41666667  0.37500000       0.014
  -0.25000000 -0.41666667  0.37500000       0.014
  -0.08333333 -0.41666667  0.37500000       0.014
   0.08333333 -0.25000000  0.37500000       0.014
   0.25000000 -0.25000000  0.37500000       0.014
   0.41666667 -0.25000000  0.37500000       0.014
  -0.41666667 -0.25000000  0.37500000       0.014
  -0.25000000 -0.25000000  0.37500000       0.014
  -0.08333333 -0.25000000  0.37500000       0.014
   0.08333333 -0.08333333  0.37500000       0.014
   0.25000000 -0.08333333  0.37500000       0.014
   0.41666667 -0.08333333  0.37500000       0.014
  -0.41666667 -0.08333333  0.37500000       0.014
  -0.25000000 -0.08333333  0.37500000       0.014
  -0.08333333 -0.08333333  0.37500000       0.014
 
 position of ions in fractional coordinates (direct lattice) 
   0.66667703  0.33331061  0.50000070
   0.99998926  0.00002187  0.50000053
   0.33311315  0.02907181  0.55799819
   0.97139074  0.30473277  0.55784902
   0.69575945  0.66644706  0.55800373
   0.69527690  0.02859586  0.44215010
   0.33355667  0.30426630  0.44200082
   0.97090416  0.66688184  0.44199540
 
 position of ions in cartesian coordinates  (Angst):
   3.07754040  1.77612875 11.40996369
   6.15510956 -0.00048895 11.40993861
   1.96177227  0.15636268 12.73297788
   5.04091221  1.62328222 12.73015015
   2.23078284  3.55118846 12.73375613
   4.19175790  0.15233707 10.08970404
   1.11679407  1.62205211 10.08626272
   3.92244070  3.55225322 10.08677332
 


--------------------------------------------------------------------------------------------------------


 k-point     1 :   0.0833 0.0833 0.1250  plane waves:   13557
 k-point     2 :   0.2500 0.0833 0.1250  plane waves:   13579
 k-point     3 :   0.4167 0.0833 0.1250  plane waves:   13591
 k-point     4 :  -0.4167 0.0833 0.1250  plane waves:   13588
 k-point     5 :  -0.2500 0.0833 0.1250  plane waves:   13552
 k-point     6 :  -0.0833 0.0833 0.1250  plane waves:   13542
 k-point     7 :   0.0833 0.2500 0.1250  plane waves:   13579
 k-point     8 :   0.2500 0.2500 0.1250  plane waves:   13626
 k-point     9 :   0.4167 0.2500 0.1250  plane waves:   13619
 k-point    10 :  -0.4167 0.2500 0.1250  plane waves:   13611
 k-point    11 :  -0.2500 0.2500 0.1250  plane waves:   13557
 k-point    12 :  -0.0833 0.2500 0.1250  plane waves:   13555
 k-point    13 :   0.0833 0.4167 0.1250  plane waves:   13591
 k-point    14 :   0.2500 0.4167 0.1250  plane waves:   13619
 k-point    15 :   0.4167 0.4167 0.1250  plane waves:   13604
 k-point    16 :  -0.4167 0.4167 0.1250  plane waves:   13594
 k-point    17 :  -0.2500 0.4167 0.1250  plane waves:   13610
 k-point    18 :  -0.0833 0.4167 0.1250  plane waves:   13588
 k-point    19 :   0.0833-0.4167 0.1250  plane waves:   13589
 k-point    20 :   0.2500-0.4167 0.1250  plane waves:   13610
 k-point    21 :   0.4167-0.4167 0.1250  plane waves:   13594
 k-point    22 :  -0.4167-0.4167 0.1250  plane waves:   13599
 k-point    23 :  -0.2500-0.4167 0.1250  plane waves:   13615
 k-point    24 :  -0.0833-0.4167 0.1250  plane waves:   13594
 k-point    25 :   0.0833-0.2500 0.1250  plane waves:   13554
 k-point    26 :   0.2500-0.2500 0.1250  plane waves:   13556
 k-point    27 :   0.4167-0.2500 0.1250  plane waves:   13610
 k-point    28 :  -0.4167-0.2500 0.1250  plane waves:   13614
 k-point    29 :  -0.2500-0.2500 0.1250  plane waves:   13625
 k-point    30 :  -0.0833-0.2500 0.1250  plane waves:   13580
 k-point    31 :   0.0833-0.0833 0.1250  plane waves:   13542
 k-point    32 :   0.2500-0.0833 0.1250  plane waves:   13554
 k-point    33 :   0.4167-0.0833 0.1250  plane waves:   13589
 k-point    34 :  -0.4167-0.0833 0.1250  plane waves:   13597
 k-point    35 :  -0.2500-0.0833 0.1250  plane waves:   13580
 k-point    36 :  -0.0833-0.0833 0.1250  plane waves:   13556
 k-point    37 :   0.0833 0.0833 0.3750  plane waves:   13547
 k-point    38 :   0.2500 0.0833 0.3750  plane waves:   13585
 k-point    39 :   0.4167 0.0833 0.3750  plane waves:   13595
 k-point    40 :  -0.4167 0.0833 0.3750  plane waves:   13592
 k-point    41 :  -0.2500 0.0833 0.3750  plane waves:   13556
 k-point    42 :  -0.0833 0.0833 0.3750  plane waves:   13550
 k-point    43 :   0.0833 0.2500 0.3750  plane waves:   13585
 k-point    44 :   0.2500 0.2500 0.3750  plane waves:   13618
 k-point    45 :   0.4167 0.2500 0.3750  plane waves:   13633
 k-point    46 :  -0.4167 0.2500 0.3750  plane waves:   13604
 k-point    47 :  -0.2500 0.2500 0.3750  plane waves:   13549
 k-point    48 :  -0.0833 0.2500 0.3750  plane waves:   13553
 k-point    49 :   0.0833 0.4167 0.3750  plane waves:   13595
 k-point    50 :   0.2500 0.4167 0.3750  plane waves:   13632
 k-point    51 :   0.4167 0.4167 0.3750  plane waves:   13624
 k-point    52 :  -0.4167 0.4167 0.3750  plane waves:   13577
 k-point    53 :  -0.2500 0.4167 0.3750  plane waves:   13600
 k-point    54 :  -0.0833 0.4167 0.3750  plane waves:   13590
 k-point    55 :   0.0833-0.4167 0.3750  plane waves:   13592
 k-point    56 :   0.2500-0.4167 0.3750  plane waves:   13604
 k-point    57 :   0.4167-0.4167 0.3750  plane waves:   13579
 k-point    58 :  -0.4167-0.4167 0.3750  plane waves:   13620
 k-point    59 :  -0.2500-0.4167 0.3750  plane waves:   13634
 k-point    60 :  -0.0833-0.4167 0.3750  plane waves:   13595
 k-point    61 :   0.0833-0.2500 0.3750  plane waves:   13558
 k-point    62 :   0.2500-0.2500 0.3750  plane waves:   13549
 k-point    63 :   0.4167-0.2500 0.3750  plane waves:   13600
 k-point    64 :  -0.4167-0.2500 0.3750  plane waves:   13635
 k-point    65 :  -0.2500-0.2500 0.3750  plane waves:   13619
 k-point    66 :  -0.0833-0.2500 0.3750  plane waves:   13584
 k-point    67 :   0.0833-0.0833 0.3750  plane waves:   13549
 k-point    68 :   0.2500-0.0833 0.3750  plane waves:   13553
 k-point    69 :   0.4167-0.0833 0.3750  plane waves:   13590
 k-point    70 :  -0.4167-0.0833 0.3750  plane waves:   13595
 k-point    71 :  -0.2500-0.0833 0.3750  plane waves:   13586
 k-point    72 :  -0.0833-0.0833 0.3750  plane waves:   13545

 maximum and minimum number of plane-waves per node :     13635    13542

 maximum number of plane-waves:     13635
 maximum index in each direction: 
   IXMAX=   10   IYMAX=   10   IZMAX=   37
   IXMIN=  -10   IYMIN=  -10   IZMIN=  -37


 serial   3D FFT for wavefunctions
 parallel 3D FFT for charge:
    minimum data exchange during FFTs selected (reduces bandwidth)


 total amount of memory used by VASP MPI-rank0   390305. kBytes
=======================================================================

   base                                    :      30000. kBytes
   nonl-proj                               :     285085. kBytes
   fftplans                                :       1308. kBytes
   grid                                    :      10258. kBytes
   one-center                              :        248. kBytes
   wavefun                                 :      63406. kBytes
 
     INWAV:  cpu time      0.0000: real time      0.0000
 Broyden mixing: mesh for mixing (old mesh)
   NGX = 21   NGY = 21   NGZ = 75
  (NGX  = 60   NGY  = 60   NGZ  =224)
  gives a total of  33075 points

 initial charge density was supplied:
 charge density of overlapping atoms calculated
 number of electron      54.0000000 magnetization       9.6000000
 keeping initial charge density in first step


--------------------------------------------------------------------------------------------------------


 Maximum index for augmentation-charges          389 (set IRDMAX)


--------------------------------------------------------------------------------------------------------


 First call to EWALD:  gamma=   0.195
 Maximum number of real-space cells   4x   4x   1
 Maximum number of reciprocal cells   2x   2x   6

    FEWALD:  cpu time      0.0017: real time      0.0017


--------------------------------------- Ionic step        1  -------------------------------------------




--------------------------------------- Iteration      1(   1)  ---------------------------------------


    POTLOK:  cpu time      0.0761: real time      0.0761
    SETDIJ:  cpu time      0.0081: real time      0.0081
     EDDAV:  cpu time     43.3466: real time     43.3566
       DOS:  cpu time      0.0028: real time      0.0029
    --------------------------------------------
      LOOP:  cpu time     43.4337: real time     43.4437

 eigenvalue-minimisations  : 18432
 total energy-change (2. order) : 0.4008390E+03  (-0.1498381E+04)
 number of electron      54.0000000 magnetization       9.6000000
 augmentation part       54.0000000 magnetization       9.6000000

 Free energy of the ion-electron system (eV)
  ---------------------------------------------------
  alpha Z        PSCENC =        23.01523305
  Ewald energy   TEWEN  =      7673.06934580
  -Hartree energ DENC   =    -10328.30805650
  -exchange      EXHF   =         0.00000000
  -V(xc)+E(xc)   XCENC  =        82.57744203
  PAW double counting   =      2504.62862977    -2465.96035111
  entropy T*S    EENTRO =        -0.04367478
  eigenvalues    EBANDS =      -100.20963138
  atomic energy  EATOM  =      3012.07006103
  Solvation  Ediel_sol  =         0.00000000
  ---------------------------------------------------
  free energy    TOTEN  =       400.83899791 eV

  energy without entropy =      400.88267269  energy(sigma->0) =      400.86083530


--------------------------------------------------------------------------------------------------------




--------------------------------------- Iteration      1(   2)  ---------------------------------------


     EDDAV:  cpu time     52.5337: real time     52.5528
       DOS:  cpu time      0.0022: real time      0.0022
    --------------------------------------------
      LOOP:  cpu time     52.5358: real time     52.5549

 eigenvalue-minimisations  : 23200
 total energy-change (2. order) :-0.3791880E+03  (-0.3406679E+03)
 number of electron      54.0000000 magnetization       9.6000000
 augmentation part       54.0000000 magnetization       9.6000000

 Free energy of the ion-electron system (eV)
  ---------------------------------------------------
  alpha Z        PSCENC =        23.01523305
  Ewald energy   TEWEN  =      7673.06934580
  -Hartree energ DENC   =    -10328.30805650
  -exchange      EXHF   =         0.00000000
  -V(xc)+E(xc)   XCENC  =        82.57744203
  PAW double counting   =      2504.62862977    -2465.96035111
  entropy T*S    EENTRO =        -0.00002158
  eigenvalues    EBANDS =      -479.44133158
  atomic energy  EATOM  =      3012.07006103
  Solvation  Ediel_sol  =         0.00000000
  ---------------------------------------------------
  free energy    TOTEN  =        21.65095091 eV

  energy without entropy =       21.65097249  energy(sigma->0) =       21.65096170


--------------------------------------------------------------------------------------------------------




--------------------------------------- Iteration      1(   3)  ---------------------------------------


     EDDAV:  cpu time     60.6954: real time     60.7182
       DOS:  cpu time      0.0024: real time      0.0024
    --------------------------------------------
      LOOP:  cpu time     60.6978: real time     60.7206

 eigenvalue-minimisations  : 27168
 total energy-change (2. order) :-0.6265860E+02  (-0.6182771E+02)
 number of electron      54.0000000 magnetization       9.6000000
 augmentation part       54.0000000 magnetization       9.6000000

 Free energy of the ion-electron system (eV)
  ---------------------------------------------------
  alpha Z        PSCENC =        23.01523305
  Ewald energy   TEWEN  =      7673.06934580
  -Hartree energ DENC   =    -10328.30805650
  -exchange      EXHF   =         0.00000000
  -V(xc)+E(xc)   XCENC  =        82.57744203
  PAW double counting   =      2504.62862977    -2465.96035111
  entropy T*S    EENTRO =        -0.00000000
  eigenvalues    EBANDS =      -542.09995607
  atomic energy  EATOM  =      3012.07006103
  Solvation  Ediel_sol  =         0.00000000
  ---------------------------------------------------
  free energy    TOTEN  =       -41.00765200 eV

  energy without entropy =      -41.00765200  energy(sigma->0) =      -41.00765200


--------------------------------------------------------------------------------------------------------




--------------------------------------- Iteration      1(   4)  ---------------------------------------


     EDDAV:  cpu time     53.6485: real time     53.6674
       DOS:  cpu time      0.0023: real time      0.0023
    --------------------------------------------
      LOOP:  cpu time     53.6508: real time     53.6697

 eigenvalue-minimisations  : 23744
 total energy-change (2. order) :-0.1722480E+01  (-0.1721428E+01)
 number of electron      54.0000000 magnetization       9.6000000
 augmentation part       54.0000000 magnetization       9.6000000

 Free energy of the ion-electron system (eV)
  ---------------------------------------------------
  alpha Z        PSCENC =        23.01523305
  Ewald energy   TEWEN  =      7673.06934580
  -Hartree energ DENC   =    -10328.30805650
  -exchange      EXHF   =         0.00000000
  -V(xc)+E(xc)   XCENC  =        82.57744203
  PAW double counting   =      2504.62862977    -2465.96035111
  entropy T*S    EENTRO =        -0.00000000
  eigenvalues    EBANDS =      -543.82243568
  atomic energy  EATOM  =      3012.07006103
  Solvation  Ediel_sol  =         0.00000000
  ---------------------------------------------------
  free energy    TOTEN  =       -42.73013161 eV

  energy without entropy =      -42.73013161  energy(sigma->0) =      -42.73013161


--------------------------------------------------------------------------------------------------------




--------------------------------------- Iteration      1(   5)  ---------------------------------------


     EDDAV:  cpu time     63.1115: real time     63.1300
       DOS:  cpu time      0.0025: real time      0.0025
    CHARGE:  cpu time      0.6546: real time      0.6550
    MIXING:  cpu time      0.0028: real time      0.0028
    --------------------------------------------
      LOOP:  cpu time     63.7715: real time     63.7904

 eigenvalue-minimisations  : 28480
 total energy-change (2. order) :-0.5404026E-01  (-0.5402470E-01)
 number of electron      53.9999942 magnetization       9.1940583
 augmentation part       -2.1146728 magnetization       6.5091505

 Broyden mixing:
  rms(total) = 0.19980E+01    rms(broyden)= 0.19978E+01
  rms(prec ) = 0.20920E+01
  weight for this iteration     100.00

 Free energy of the ion-electron system (eV)
  ---------------------------------------------------
  alpha Z        PSCENC =        23.01523305
  Ewald energy   TEWEN  =      7673.06934580
  -Hartree energ DENC   =    -10328.30805650
  -exchange      EXHF   =         0.00000000
  -V(xc)+E(xc)   XCENC  =        82.57744203
  PAW double counting   =      2504.62862977    -2465.96035111
  entropy T*S    EENTRO =        -0.00000000
  eigenvalues    EBANDS =      -543.87647594
  atomic energy  EATOM  =      3012.07006103
  Solvation  Ediel_sol  =         0.00000000
  ---------------------------------------------------
  free energy    TOTEN  =       -42.78417187 eV

  energy without entropy =      -42.78417187  energy(sigma->0) =      -42.78417187


--------------------------------------------------------------------------------------------------------




--------------------------------------- Iteration      1(   6)  ---------------------------------------


    POTLOK:  cpu time      0.0734: real time      0.0734
    SETDIJ:  cpu time      0.0075: real time      0.0075
     EDDAV:  cpu time     57.2039: real time     57.2211
       DOS:  cpu time      0.0029: real time      0.0029
    CHARGE:  cpu time      0.6654: real time      0.6657
    MIXING:  cpu time      0.0029: real time      0.0029
    --------------------------------------------
      LOOP:  cpu time     57.9560: real time     57.9735

 eigenvalue-minimisations  : 25664
 total energy-change (2. order) : 0.6564576E+01  (-0.5584402E+01)
 number of electron      53.9999936 magnetization       9.0200682
 augmentation part        0.9857786 magnetization       7.1443562

 Broyden mixing:
  rms(total) = 0.20922E+01    rms(broyden)= 0.20922E+01
  rms(prec ) = 0.21633E+01
  weight for this iteration     100.00

 eigenvalues of (default mixing * dielectric matrix)
  average eigenvalue GAMMA=   0.3369
  0.3369

 Free energy of the ion-electron system (eV)
  ---------------------------------------------------
  alpha Z        PSCENC =        23.01523305
  Ewald energy   TEWEN  =      7673.06934580
  -Hartree energ DENC   =    -10314.11087174
  -exchange      EXHF   =         0.00000000
  -V(xc)+E(xc)   XCENC  =        88.63896379
  PAW double counting   =      2829.31988960    -2786.72350029
  entropy T*S    EENTRO =        -0.00000000
  eigenvalues    EBANDS =      -561.49871662
  atomic energy  EATOM  =      3012.07006103
  Solvation  Ediel_sol  =         0.00000000
  ---------------------------------------------------
  free energy    TOTEN  =       -36.21959537 eV

  energy without entropy =      -36.21959537  energy(sigma->0) =      -36.21959537


--------------------------------------------------------------------------------------------------------




--------------------------------------- Iteration      1(   7)  ---------------------------------------


    POTLOK:  cpu time      0.0730: real time      0.0730
    SETDIJ:  cpu time      0.0075: real time      0.0075
     EDDAV:  cpu time     60.5005: real time     60.5166
       DOS:  cpu time      0.0017: real time      0.0017
    CHARGE:  cpu time      0.6658: real time      0.6661
    MIXING:  cpu time      0.0029: real time      0.0029
    --------------------------------------------
      LOOP:  cpu time     61.2515: real time     61.2677

 eigenvalue-minimisations  : 27488
 total energy-change (2. order) : 0.1796847E+01  (-0.2411475E+01)
 number of electron      53.9999941 magnetization       8.6148959
 augmentation part       -0.7779167 magnetization       6.6267655

 Broyden mixing:
  rms(total) = 0.96528E+00    rms(broyden)= 0.96526E+00
  rms(prec ) = 0.97184E+00
  weight for this iteration     100.00

 eigenvalues of (default mixing * dielectric matrix)
  average eigenvalue GAMMA=   0.7323
  1.1035  0.3611

 Free energy of the ion-electron system (eV)
  ---------------------------------------------------
  alpha Z        PSCENC =        23.01523305
  Ewald energy   TEWEN  =      7673.06934580
  -Hartree energ DENC   =    -10326.60422088
  -exchange      EXHF   =         0.00000000
  -V(xc)+E(xc)   XCENC  =        88.45233312
  PAW double counting   =      3003.91399809    -2964.47871753
  entropy T*S    EENTRO =        -0.00000000
  eigenvalues    EBANDS =      -543.86078108
  atomic energy  EATOM  =      3012.07006103
  Solvation  Ediel_sol  =         0.00000000
  ---------------------------------------------------
  free energy    TOTEN  =       -34.42274839 eV

  energy without entropy =      -34.42274839  energy(sigma->0) =      -34.42274839


--------------------------------------------------------------------------------------------------------




--------------------------------------- Iteration      1(   8)  ---------------------------------------


    POTLOK:  cpu time      0.0730: real time      0.0730
    SETDIJ:  cpu time      0.0075: real time      0.0075
     EDDAV:  cpu time     55.1951: real time     55.2142
       DOS:  cpu time      0.0017: real time      0.0017
    CHARGE:  cpu time      0.6664: real time      0.6666
    MIXING:  cpu time      0.0031: real time      0.0031
    --------------------------------------------
      LOOP:  cpu time     55.9467: real time     55.9660

 eigenvalue-minimisations  : 24640
 total energy-change (2. order) :-0.1778612E+00  (-0.6257322E-01)
 number of electron      53.9999941 magnetization       8.0934758
 augmentation part       -0.7379897 magnetization       6.1721809

 Broyden mixing:
  rms(total) = 0.42435E+00    rms(broyden)= 0.42435E+00
  rms(prec ) = 0.43313E+00
  weight for this iteration     100.00

 eigenvalues of (default mixing * dielectric matrix)
  average eigenvalue GAMMA=   1.0338
  1.9537  0.7423  0.4055

 Free energy of the ion-electron system (eV)
  ---------------------------------------------------
  alpha Z        PSCENC =        23.01523305
  Ewald energy   TEWEN  =      7673.06934580
  -Hartree energ DENC   =    -10332.21247549
  -exchange      EXHF   =         0.00000000
  -V(xc)+E(xc)   XCENC  =        88.91329917
  PAW double counting   =      3343.76822104    -3305.65679970
  entropy T*S    EENTRO =        -0.00000000
  eigenvalues    EBANDS =      -537.56749454
  atomic energy  EATOM  =      3012.07006103
  Solvation  Ediel_sol  =         0.00000000
  ---------------------------------------------------
  free energy    TOTEN  =       -34.60060963 eV

  energy without entropy =      -34.60060963  energy(sigma->0) =      -34.60060963


--------------------------------------------------------------------------------------------------------




--------------------------------------- Iteration      1(   9)  ---------------------------------------


    POTLOK:  cpu time      0.0729: real time      0.0729
    SETDIJ:  cpu time      0.0075: real time      0.0075
     EDDAV:  cpu time     58.9656: real time     58.9837
       DOS:  cpu time      0.0018: real time      0.0018
    CHARGE:  cpu time      0.6659: real time      0.6661
    MIXING:  cpu time      0.0032: real time      0.0032
    --------------------------------------------
      LOOP:  cpu time     59.7169: real time     59.7353

 eigenvalue-minimisations  : 26560
 total energy-change (2. order) :-0.1284812E+01  (-0.8632338E-01)
 number of electron      53.9999941 magnetization       7.8357953
 augmentation part       -0.4514621 magnetization       5.9891600

 Broyden mixing:
  rms(total) = 0.16285E+00    rms(broyden)= 0.16285E+00
  rms(prec ) = 0.16608E+00
  weight for this iteration     100.00

 eigenvalues of (default mixing * dielectric matrix)
  average eigenvalue GAMMA=   1.0762
  2.2911  0.9446  0.4145  0.6546

 Free energy of the ion-electron system (eV)
  ---------------------------------------------------
  alpha Z        PSCENC =        23.01523305
  Ewald energy   TEWEN  =      7673.06934580
  -Hartree energ DENC   =    -10337.22964172
  -exchange      EXHF   =         0.00000000
  -V(xc)+E(xc)   XCENC  =        88.46059712
  PAW double counting   =      3610.74336638    -3573.24674368
  entropy T*S    EENTRO =        -0.00000000
  eigenvalues    EBANDS =      -532.76763962
  atomic energy  EATOM  =      3012.07006103
  Solvation  Ediel_sol  =         0.00000000
  ---------------------------------------------------
  free energy    TOTEN  =       -35.88542164 eV

  energy without entropy =      -35.88542164  energy(sigma->0) =      -35.88542164


--------------------------------------------------------------------------------------------------------




--------------------------------------- Iteration      1(  10)  ---------------------------------------


    POTLOK:  cpu time      0.0729: real time      0.0729
    SETDIJ:  cpu time      0.0076: real time      0.0076
     EDDAV:  cpu time     56.1968: real time     56.2122
       DOS:  cpu time      0.0018: real time      0.0018
    CHARGE:  cpu time      0.6702: real time      0.6703
    MIXING:  cpu time      0.0034: real time      0.0034
    --------------------------------------------
      LOOP:  cpu time     56.9526: real time     56.9682

 eigenvalue-minimisations  : 25152
 total energy-change (2. order) :-0.7468300E+00  (-0.1757158E-01)
 number of electron      53.9999941 magnetization       7.4307010
 augmentation part       -0.5053146 magnetization       5.5755244

 Broyden mixing:
  rms(total) = 0.11936E+00    rms(broyden)= 0.11936E+00
  rms(prec ) = 0.12018E+00
  weight for this iteration     100.00

 eigenvalues of (default mixing * dielectric matrix)
  average eigenvalue GAMMA=   1.1010
  2.5070  1.1966  0.4121  0.6947  0.6947

 Free energy of the ion-electron system (eV)
  ---------------------------------------------------
  alpha Z        PSCENC =        23.01523305
  Ewald energy   TEWEN  =      7673.06934580
  -Hartree energ DENC   =    -10338.82671687
  -exchange      EXHF   =         0.00000000
  -V(xc)+E(xc)   XCENC  =        87.92431636
  PAW double counting   =      3635.71392391    -3598.45485038
  entropy T*S    EENTRO =        -0.00000000
  eigenvalues    EBANDS =      -531.14356450
  atomic energy  EATOM  =      3012.07006103
  Solvation  Ediel_sol  =         0.00000000
  ---------------------------------------------------
  free energy    TOTEN  =       -36.63225159 eV

  energy without entropy =      -36.63225159  energy(sigma->0) =      -36.63225159


--------------------------------------------------------------------------------------------------------




--------------------------------------- Iteration      1(  11)  ---------------------------------------


    POTLOK:  cpu time      0.0729: real time      0.0729
    SETDIJ:  cpu time      0.0075: real time      0.0075
     EDDAV:  cpu time     57.2672: real time     57.2859
       DOS:  cpu time      0.0019: real time      0.0020
    CHARGE:  cpu time      0.6698: real time      0.6699
    MIXING:  cpu time      0.0035: real time      0.0035
    --------------------------------------------
      LOOP:  cpu time     58.0229: real time     58.0416

 eigenvalue-minimisations  : 25536
 total energy-change (2. order) :-0.7366153E+00  (-0.1989558E-01)
 number of electron      53.9999941 magnetization       6.7747982
 augmentation part       -0.5414211 magnetization       4.9092329

 Broyden mixing:
  rms(total) = 0.89885E-01    rms(broyden)= 0.89885E-01
  rms(prec ) = 0.90323E-01
  weight for this iteration     100.00

 eigenvalues of (default mixing * dielectric matrix)
  average eigenvalue GAMMA=   1.3134
  3.1485  2.0256  0.9776  0.4121  0.6760  0.6407

 Free energy of the ion-electron system (eV)
  ---------------------------------------------------
  alpha Z        PSCENC =        23.01523305
  Ewald energy   TEWEN  =      7673.06934580
  -Hartree energ DENC   =    -10339.72614255
  -exchange      EXHF   =         0.00000000
  -V(xc)+E(xc)   XCENC  =        87.38512546
  PAW double counting   =      3671.44397927    -3634.32855097
  entropy T*S    EENTRO =        -0.00000000
  eigenvalues    EBANDS =      -530.29791800
  atomic energy  EATOM  =      3012.07006103
  Solvation  Ediel_sol  =         0.00000000
  ---------------------------------------------------
  free energy    TOTEN  =       -37.36886691 eV

  energy without entropy =      -37.36886691  energy(sigma->0) =      -37.36886691


--------------------------------------------------------------------------------------------------------




--------------------------------------- Iteration      1(  12)  ---------------------------------------


    POTLOK:  cpu time      0.0727: real time      0.0727
    SETDIJ:  cpu time      0.0075: real time      0.0075
     EDDAV:  cpu time     55.4971: real time     55.5132
       DOS:  cpu time      0.0017: real time      0.0017
    CHARGE:  cpu time      0.6736: real time      0.6737
    MIXING:  cpu time      0.0038: real time      0.0038
    --------------------------------------------
      LOOP:  cpu time     56.2563: real time     56.2725

 eigenvalue-minimisations  : 24608
 total energy-change (2. order) :-0.8014307E+00  (-0.2697690E-01)
 number of electron      53.9999941 magnetization       6.6118764
 augmentation part       -0.5422361 magnetization       4.7434624

 Broyden mixing:
  rms(total) = 0.67517E-01    rms(broyden)= 0.67516E-01
  rms(prec ) = 0.68178E-01
  weight for this iteration     100.00

 eigenvalues of (default mixing * dielectric matrix)
  average eigenvalue GAMMA=   1.3021
  3.0655  2.3736  1.1669  0.4121  0.7471  0.7076  0.6418

 Free energy of the ion-electron system (eV)
  ---------------------------------------------------
  alpha Z        PSCENC =        23.01523305
  Ewald energy   TEWEN  =      7673.06934580
  -Hartree energ DENC   =    -10339.76988180
  -exchange      EXHF   =         0.00000000
  -V(xc)+E(xc)   XCENC  =        86.68878769
  PAW double counting   =      3675.33377246    -3638.17784886
  entropy T*S    EENTRO =        -0.00000000
  eigenvalues    EBANDS =      -530.39976701
  atomic energy  EATOM  =      3012.07006103
  Solvation  Ediel_sol  =         0.00000000
  ---------------------------------------------------
  free energy    TOTEN  =       -38.17029763 eV

  energy without entropy =      -38.17029763  energy(sigma->0) =      -38.17029763


--------------------------------------------------------------------------------------------------------




--------------------------------------- Iteration      1(  13)  ---------------------------------------


    POTLOK:  cpu time      0.0727: real time      0.0727
    SETDIJ:  cpu time      0.0075: real time      0.0075
     EDDAV:  cpu time     60.9870: real time     61.0042
       DOS:  cpu time      0.0016: real time      0.0017
    CHARGE:  cpu time      0.6708: real time      0.6710
    MIXING:  cpu time      0.0039: real time      0.0039
    --------------------------------------------
      LOOP:  cpu time     61.7436: real time     61.7610

 eigenvalue-minimisations  : 27360
 total energy-change (2. order) :-0.1676937E+00  (-0.2031528E-02)
 number of electron      53.9999941 magnetization       6.1647016
 augmentation part       -0.5331241 magnetization       4.3009537

 Broyden mixing:
  rms(total) = 0.44165E-01    rms(broyden)= 0.44165E-01
  rms(prec ) = 0.44608E-01
  weight for this iteration     100.00

 eigenvalues of (default mixing * dielectric matrix)
  average eigenvalue GAMMA=   1.6424
  5.5757  2.5883  1.4046  1.0903  0.4121  0.7925  0.6740  0.6017

 Free energy of the ion-electron system (eV)
  ---------------------------------------------------
  alpha Z        PSCENC =        23.01523305
  Ewald energy   TEWEN  =      7673.06934580
  -Hartree energ DENC   =    -10339.34753141
  -exchange      EXHF   =         0.00000000
  -V(xc)+E(xc)   XCENC  =        86.55229288
  PAW double counting   =      3644.82611521    -3607.59455734
  entropy T*S    EENTRO =        -0.00000000
  eigenvalues    EBANDS =      -530.92895056
  atomic energy  EATOM  =      3012.07006103
  Solvation  Ediel_sol  =         0.00000000
  ---------------------------------------------------
  free energy    TOTEN  =       -38.33799133 eV

  energy without entropy =      -38.33799133  energy(sigma->0) =      -38.33799133


--------------------------------------------------------------------------------------------------------




--------------------------------------- Iteration      1(  14)  ---------------------------------------


    POTLOK:  cpu time      0.0729: real time      0.0729
    SETDIJ:  cpu time      0.0075: real time      0.0075
     EDDAV:  cpu time     48.0675: real time     48.0823
       DOS:  cpu time      0.0016: real time      0.0016
    CHARGE:  cpu time      0.6724: real time      0.6724
    MIXING:  cpu time      0.0039: real time      0.0039
    --------------------------------------------
      LOOP:  cpu time     48.8258: real time     48.8406

 eigenvalue-minimisations  : 20896
 total energy-change (2. order) :-0.4021837E+00  (-0.6094337E-02)
 number of electron      53.9999941 magnetization       6.0591291
 augmentation part       -0.5364968 magnetization       4.1949672

 Broyden mixing:
  rms(total) = 0.19381E-01    rms(broyden)= 0.19380E-01
  rms(prec ) = 0.20468E-01
  weight for this iteration     100.00

 eigenvalues of (default mixing * dielectric matrix)
  average eigenvalue GAMMA=   1.7608
  7.4358  2.5485  1.5808  1.1560  0.4121  0.7930  0.6762  0.6762  0.5683

 Free energy of the ion-electron system (eV)
  ---------------------------------------------------
  alpha Z        PSCENC =        23.01523305
  Ewald energy   TEWEN  =      7673.06934580
  -Hartree energ DENC   =    -10338.71145918
  -exchange      EXHF   =         0.00000000
  -V(xc)+E(xc)   XCENC  =        86.14908476
  PAW double counting   =      3622.75639493    -3585.52128013
  entropy T*S    EENTRO =        -0.00000000
  eigenvalues    EBANDS =      -531.56755528
  atomic energy  EATOM  =      3012.07006103
  Solvation  Ediel_sol  =         0.00000000
  ---------------------------------------------------
  free energy    TOTEN  =       -38.74017501 eV

  energy without entropy =      -38.74017501  energy(sigma->0) =      -38.74017501


--------------------------------------------------------------------------------------------------------




--------------------------------------- Iteration      1(  15)  ---------------------------------------


    POTLOK:  cpu time      0.0730: real time      0.0730
    SETDIJ:  cpu time      0.0074: real time      0.0075
     EDDAV:  cpu time     55.3883: real time     55.4054
       DOS:  cpu time      0.0016: real time      0.0016
    CHARGE:  cpu time      0.6733: real time      0.6734
    MIXING:  cpu time      0.0042: real time      0.0042
    --------------------------------------------
      LOOP:  cpu time     56.1478: real time     56.1652

 eigenvalue-minimisations  : 24608
 total energy-change (2. order) :-0.1111973E+00  (-0.5135610E-03)
 number of electron      53.9999941 magnetization       6.0339557
 augmentation part       -0.5305578 magnetization       4.1699880

 Broyden mixing:
  rms(total) = 0.87290E-02    rms(broyden)= 0.87286E-02
  rms(prec ) = 0.10118E-01
  weight for this iteration     100.00

 eigenvalues of (default mixing * dielectric matrix)
  average eigenvalue GAMMA=   1.7637
  8.3507  2.4637  1.6118  1.2749  0.4121  0.8449  0.7395  0.7395  0.6259  0.5741

 Free energy of the ion-electron system (eV)
  ---------------------------------------------------
  alpha Z        PSCENC =        23.01523305
  Ewald energy   TEWEN  =      7673.06934580
  -Hartree energ DENC   =    -10338.33387125
  -exchange      EXHF   =         0.00000000
  -V(xc)+E(xc)   XCENC  =        86.03321724
  PAW double counting   =      3624.88590336    -3587.66665226
  entropy T*S    EENTRO =        -0.00000000
  eigenvalues    EBANDS =      -531.92460926
  atomic energy  EATOM  =      3012.07006103
  Solvation  Ediel_sol  =         0.00000000
  ---------------------------------------------------
  free energy    TOTEN  =       -38.85137228 eV

  energy without entropy =      -38.85137228  energy(sigma->0) =      -38.85137228


--------------------------------------------------------------------------------------------------------




--------------------------------------- Iteration      1(  16)  ---------------------------------------


    POTLOK:  cpu time      0.0733: real time      0.0733
    SETDIJ:  cpu time      0.0075: real time      0.0075
     EDDAV:  cpu time     57.6938: real time     57.7136
       DOS:  cpu time      0.0017: real time      0.0017
    CHARGE:  cpu time      0.6621: real time      0.6622
    MIXING:  cpu time      0.0042: real time      0.0042
    --------------------------------------------
      LOOP:  cpu time     58.4427: real time     58.4626

 eigenvalue-minimisations  : 25664
 total energy-change (2. order) :-0.1276488E-01  (-0.4378291E-04)
 number of electron      53.9999941 magnetization       6.0174916
 augmentation part       -0.5284858 magnetization       4.1536715

 Broyden mixing:
  rms(total) = 0.55720E-02    rms(broyden)= 0.55719E-02
  rms(prec ) = 0.70974E-02
  weight for this iteration     100.00

 eigenvalues of (default mixing * dielectric matrix)
  average eigenvalue GAMMA=   1.7558
  8.5175  2.4419  1.4975  1.4975  1.3918  0.4121  0.8936  0.7314  0.7314  0.6161
  0.5833

 Free energy of the ion-electron system (eV)
  ---------------------------------------------------
  alpha Z        PSCENC =        23.01523305
  Ewald energy   TEWEN  =      7673.06934580
  -Hartree energ DENC   =    -10337.97263304
  -exchange      EXHF   =         0.00000000
  -V(xc)+E(xc)   XCENC  =        86.01961913
  PAW double counting   =      3627.63986240    -3590.42404177
  entropy T*S    EENTRO =        -0.00000000
  eigenvalues    EBANDS =      -532.28158377
  atomic energy  EATOM  =      3012.07006103
  Solvation  Ediel_sol  =         0.00000000
  ---------------------------------------------------
  free energy    TOTEN  =       -38.86413717 eV

  energy without entropy =      -38.86413717  energy(sigma->0) =      -38.86413717


--------------------------------------------------------------------------------------------------------




--------------------------------------- Iteration      1(  17)  ---------------------------------------


    POTLOK:  cpu time      0.0725: real time      0.0725
    SETDIJ:  cpu time      0.0075: real time      0.0075
[...]
     40       3.2450      0.00000
     41       3.4034      0.00000
     42       3.6711      0.00000
     43       3.7898      0.00000
     44       4.1145      0.00000
     45       4.2064      0.00000
     46       4.2788      0.00000
     47       4.4449      0.00000
     48       4.5689      0.00000
     49       4.6912      0.00000
     50       4.7921      0.00000
     51       4.8993      0.00000
     52       5.1842      0.00000
     53       5.2848      0.00000
     54       5.3192      0.00000
     55       5.5373      0.00000
     56       5.5703      0.00000
     57       5.6553      0.00000
     58       5.9027      0.00000
     59       5.9931      0.00000
     60       6.1220      0.00000
     61       6.2120      0.00000
     62       6.4265      0.00000
     63       6.5156      0.00000
     64       6.6165      0.00000

 k-point    71 :      -0.2500   -0.0833    0.3750
  band No.  band energies     occupation 
      1     -19.7674      1.00000
      2     -19.2292      1.00000
      3     -19.1010      1.00000
      4     -19.0684      1.00000
      5     -18.9369      1.00000
      6     -18.9324      1.00000
      7      -9.3759      1.00000
      8      -8.8925      1.00000
      9      -8.6168      1.00000
     10      -8.5704      1.00000
     11      -8.3985      1.00000
     12      -8.2386      1.00000
     13      -8.1616      1.00000
     14      -7.9648      1.00000
     15      -7.7716      1.00000
     16      -7.2989      1.00000
     17      -6.9499      1.00000
     18      -6.8929      1.00000
     19      -6.8336      1.00000
     20      -6.6101      1.00000
     21      -6.5257      1.00000
     22      -6.2923      1.00000
     23      -6.1373      1.00000
     24      -6.1090      1.00000
     25      -2.5579      0.00000
     26      -2.4884      0.00000
     27      -2.3496      0.00000
     28      -2.2413      0.00000
     29      -2.1503      0.00000
     30      -2.1328      0.00000
     31      -1.6367      0.00000
     32      -1.5982      0.00000
     33      -1.5771      0.00000
     34      -1.5026      0.00000
     35       1.7463      0.00000
     36       2.0422      0.00000
     37       2.6103      0.00000
     38       3.0851      0.00000
     39       3.2769      0.00000
     40       3.4548      0.00000
     41       3.7040      0.00000
     42       3.7973      0.00000
     43       3.8737      0.00000
     44       3.9929      0.00000
     45       4.2428      0.00000
     46       4.3168      0.00000
     47       4.6205      0.00000
     48       4.7172      0.00000
     49       4.9564      0.00000
     50       5.0142      0.00000
     51       5.2758      0.00000
     52       5.4136      0.00000
     53       5.5103      0.00000
     54       5.5725      0.00000
     55       5.6434      0.00000
     56       5.6563      0.00000
     57       5.8083      0.00000
     58       6.0192      0.00000
     59       6.1776      0.00000
     60       6.3319      0.00000
     61       6.3831      0.00000
     62       6.4545      0.00000
     63       6.5886      0.00000
     64       6.6166      0.00000

 k-point    72 :      -0.0833   -0.0833    0.3750
  band No.  band energies     occupation 
      1     -19.8823      1.00000
      2     -19.1156      1.00000
      3     -19.1040      1.00000
      4     -19.0710      1.00000
      5     -18.9172      1.00000
      6     -18.9163      1.00000
      7      -9.4326      1.00000
      8      -8.9102      1.00000
      9      -8.5689      1.00000
     10      -8.5029      1.00000
     11      -8.4518      1.00000
     12      -8.4259      1.00000
     13      -8.1213      1.00000
     14      -7.9736      1.00000
     15      -7.9098      1.00000
     16      -7.2274      1.00000
     17      -7.1233      1.00000
     18      -7.0902      1.00000
     19      -6.6494      1.00000
     20      -6.4760      1.00000
     21      -6.2686      1.00000
     22      -6.2530      1.00000
     23      -6.1554      1.00000
     24      -6.1072      1.00000
     25      -2.5158      0.00000
     26      -2.4157      0.00000
     27      -2.3219      0.00000
     28      -2.3214      0.00000
     29      -2.1923      0.00000
     30      -2.1655      0.00000
     31      -1.6167      0.00000
     32      -1.6114      0.00000
     33      -1.5160      0.00000
     34      -1.4632      0.00000
     35       1.2539      0.00000
     36       1.7031      0.00000
     37       2.2407      0.00000
     38       2.6464      0.00000
     39       3.1175      0.00000
     40       3.5075      0.00000
     41       3.5975      0.00000
     42       3.9515      0.00000
     43       4.1699      0.00000
     44       4.3106      0.00000
     45       4.4524      0.00000
     46       4.8803      0.00000
     47       4.9325      0.00000
     48       5.1129      0.00000
     49       5.2411      0.00000
     50       5.4042      0.00000
     51       5.5658      0.00000
     52       5.6733      0.00000
     53       5.8239      0.00000
     54       5.8536      0.00000
     55       6.0626      0.00000
     56       6.0762      0.00000
     57       6.0857      0.00000
     58       6.1765      0.00000
     59       6.2006      0.00000
     60       6.3340      0.00000
     61       6.5083      0.00000
     62       6.6321      0.00000
     63       6.6726      0.00000
     64       6.7919      0.00000


--------------------------------------------------------------------------------------------------------


 soft charge-density along one line, spin component           1
         0         1         2         3         4         5         6         7         8         9
 total charge-density along one line
 
 soft charge-density along one line, spin component           2
         0         1         2         3         4         5         6         7         8         9
 total charge-density along one line
 
 pseudopotential strength for first ion, spin component:           1
 -9.973  -0.115   0.000   0.000   0.000 -10.291  -0.112   0.000
 -0.115  -9.893  -0.000   0.000  -0.000  -0.112 -10.214  -0.000
  0.000  -0.000 -10.056  -0.000  -0.000   0.000  -0.000 -10.372
  0.000   0.000  -0.000  -9.894   0.115   0.000   0.000  -0.000
  0.000  -0.000  -0.000   0.115  -9.972   0.000  -0.000  -0.000
-10.291  -0.112   0.000   0.000   0.000 -10.572  -0.109   0.000
 -0.112 -10.214  -0.000   0.000  -0.000  -0.109 -10.497  -0.000
  0.000  -0.000 -10.372  -0.000  -0.000   0.000  -0.000 -10.651
  0.000   0.000  -0.000 -10.214   0.112   0.000   0.000  -0.000
  0.000  -0.000  -0.000   0.112 -10.290   0.000  -0.000  -0.000
  0.000   0.000   0.000   0.000  -0.000   0.000   0.000   0.000
  0.000   0.000   0.000   0.000   0.000   0.000   0.000   0.000
 -0.000  -0.000   0.000   0.000  -0.002  -0.000  -0.000   0.000
  0.000   0.000   0.000  -0.000   0.000   0.000   0.000   0.000
 -0.002   0.000  -0.000   0.000  -0.000  -0.002   0.000  -0.000
 -0.000  -0.000   0.000   0.000  -0.002  -0.000  -0.000   0.000
  0.000   0.000   0.000  -0.000   0.000   0.000   0.000   0.000
 -0.002   0.000  -0.000   0.000  -0.000  -0.002   0.000  -0.000
 pseudopotential strength for first ion, spin component:           2
 -8.286   0.244  -0.000  -0.000  -0.000  -8.660   0.238  -0.000
  0.244  -8.449   0.000  -0.000   0.000   0.238  -8.819   0.000
 -0.000   0.000  -8.109   0.000   0.000  -0.000   0.000  -8.486
 -0.000  -0.000   0.000  -8.449  -0.244  -0.000  -0.000   0.000
 -0.000   0.000   0.000  -0.244  -8.287  -0.000   0.000   0.000
 -8.660   0.238  -0.000  -0.000  -0.000  -8.996   0.232  -0.000
  0.238  -8.819   0.000  -0.000   0.000   0.232  -9.151   0.000
 -0.000   0.000  -8.486   0.000   0.000  -0.000   0.000  -8.826
 -0.000  -0.000   0.000  -8.819  -0.238  -0.000  -0.000   0.000
 -0.000   0.000   0.000  -0.238  -8.660  -0.000   0.000   0.000
  0.000   0.000  -0.002  -0.000  -0.000   0.000   0.000  -0.002
  0.000   0.000  -0.003  -0.000  -0.000   0.000   0.000  -0.003
 -0.000   0.000  -0.000  -0.000   0.001  -0.000   0.000  -0.000
 -0.000  -0.000   0.000   0.000  -0.000  -0.000  -0.000   0.000
  0.001  -0.000   0.000  -0.000  -0.000   0.001  -0.000   0.000
 -0.000   0.000  -0.000  -0.000   0.002  -0.000   0.000  -0.000
 -0.000  -0.000   0.000   0.000  -0.000  -0.000  -0.000   0.000
  0.002  -0.000   0.000  -0.000  -0.000   0.002  -0.000   0.000
 total augmentation occupancy for first ion, spin component:           1
  3.679   1.317  -0.001  -0.001  -0.000  -2.697  -0.165  -0.000   0.001  -0.000  -0.000   0.000   0.000  -0.001   0.108  -0.000
  1.317   2.713   0.002  -0.001   0.001  -0.166  -2.480  -0.001  -0.000  -0.001   0.000  -0.000   0.000  -0.001   0.039  -0.000
 -0.001   0.002   4.430   0.001   0.000  -0.000  -0.001  -2.613  -0.000   0.000   0.116  -0.012  -0.001   0.000   0.001   0.000
 -0.001  -0.001   0.001   2.714  -1.318   0.001  -0.000  -0.000  -2.480   0.167   0.000  -0.000  -0.039   0.002  -0.000  -0.000
 -0.000   0.001   0.000  -1.318   3.679  -0.000  -0.001   0.000   0.166  -2.697   0.000  -0.000   0.108  -0.001  -0.000  -0.004
 -2.697  -0.166  -0.000   0.001  -0.000   2.663  -0.730   0.001  -0.001   0.001   0.001  -0.000  -0.000   0.001  -0.119  -0.000
 -0.165  -2.480  -0.001  -0.000  -0.001  -0.730   3.026  -0.000   0.001   0.001  -0.001   0.000  -0.000   0.001  -0.032   0.000
 -0.000  -0.001  -2.613  -0.000   0.000   0.001  -0.000   1.919  -0.000  -0.000  -0.124   0.016   0.001  -0.000  -0.001  -0.000
  0.001  -0.000  -0.000  -2.480   0.166  -0.001   0.001  -0.000   3.025   0.730  -0.000   0.000   0.033  -0.002   0.000  -0.000
 -0.000  -0.001   0.000   0.167  -2.697   0.001   0.001  -0.000   0.730   2.664  -0.000   0.000  -0.119   0.001   0.000   0.005
 -0.000   0.000   0.116   0.000   0.000   0.001  -0.001  -0.124  -0.000  -0.000   1.784  -0.211   0.000   0.000  -0.000  -0.000
  0.000  -0.000  -0.012  -0.000  -0.000  -0.000   0.000   0.016   0.000   0.000  -0.211   0.033  -0.000  -0.000   0.000   0.000
  0.000   0.000  -0.001  -0.039   0.108  -0.000  -0.000   0.001   0.033  -0.119   0.000  -0.000   0.275  -0.000   0.000  -0.008
 -0.001  -0.001   0.000   0.002  -0.001   0.001   0.001  -0.000  -0.002   0.001   0.000  -0.000  -0.000   0.261  -0.000   0.000
  0.108   0.039   0.001  -0.000  -0.000  -0.119  -0.032  -0.001   0.000   0.000  -0.000   0.000   0.000  -0.000   0.275  -0.000
 -0.000  -0.000   0.000  -0.000  -0.004  -0.000   0.000  -0.000  -0.000   0.005  -0.000   0.000  -0.008   0.000  -0.000   0.000
  0.000   0.000   0.000  -0.000   0.000  -0.000  -0.000  -0.000   0.000  -0.000  -0.000   0.000   0.000  -0.007   0.000  -0.000
 -0.004   0.000  -0.000   0.000  -0.000   0.005   0.000   0.000  -0.000  -0.000   0.000  -0.000  -0.000   0.000  -0.008   0.000
 total augmentation occupancy for first ion, spin component:           2
  2.484   2.153  -0.001  -0.001  -0.001  -1.058  -1.292   0.001   0.000   0.001   0.000   0.000   0.000  -0.000   0.018  -0.000
  2.153   1.058   0.002  -0.002   0.001  -1.294  -0.208  -0.001   0.001  -0.000  -0.000   0.000   0.000  -0.000   0.032  -0.000
 -0.001   0.002   3.931   0.001   0.001   0.001  -0.001  -1.912  -0.001  -0.001   0.009   0.006  -0.000   0.000   0.001  -0.000
 -0.001  -0.002   0.001   1.061  -2.154   0.000   0.001  -0.001  -0.209   1.294  -0.000   0.000  -0.032   0.000  -0.000  -0.000
 -0.001   0.001   0.001  -2.154   2.482   0.001  -0.000  -0.001   1.293  -1.058  -0.000  -0.000   0.018  -0.000   0.000   0.001
 -1.058  -1.294   0.001   0.000   0.001   0.370   0.841  -0.000  -0.000  -0.000  -0.000  -0.000  -0.000   0.000  -0.007   0.000
 -1.292  -0.208  -0.001   0.001  -0.000   0.841  -0.178   0.001  -0.001   0.000   0.000  -0.000   0.000   0.000  -0.016  -0.000
  0.001  -0.001  -1.912  -0.001  -0.001  -0.000   0.001   0.929   0.001   0.000   0.003  -0.005   0.000  -0.000  -0.000   0.000
  0.000   0.001  -0.001  -0.209   1.293  -0.000  -0.001   0.001  -0.177  -0.841   0.000  -0.000   0.016  -0.000  -0.000  -0.000
  0.001  -0.000  -0.001   1.294  -1.058  -0.000   0.000   0.000  -0.841   0.370   0.000   0.000  -0.007   0.000  -0.000  -0.001
  0.000  -0.000   0.009  -0.000  -0.000  -0.000   0.000   0.003   0.000   0.000  -0.034   0.048  -0.000  -0.000   0.000   0.000
  0.000   0.000   0.006   0.000  -0.000  -0.000  -0.000  -0.005  -0.000   0.000   0.048  -0.009   0.000   0.000  -0.000  -0.000
  0.000   0.000  -0.000  -0.032   0.018  -0.000   0.000   0.000   0.016  -0.007  -0.000   0.000   0.017  -0.000  -0.000   0.001
 -0.000  -0.000   0.000   0.000  -0.000   0.000   0.000  -0.000  -0.000   0.000  -0.000   0.000  -0.000   0.014  -0.000  -0.000
  0.018   0.032   0.001  -0.000   0.000  -0.007  -0.016  -0.000  -0.000  -0.000   0.000  -0.000  -0.000  -0.000   0.017   0.000
 -0.000  -0.000  -0.000  -0.000   0.001   0.000  -0.000   0.000  -0.000  -0.001   0.000  -0.000   0.001  -0.000   0.000  -0.000
 -0.000  -0.000   0.000   0.000  -0.000   0.000   0.000  -0.000  -0.000   0.000   0.000  -0.000  -0.000   0.001  -0.000  -0.000
  0.001   0.000   0.000   0.000  -0.000  -0.001   0.000  -0.000   0.000   0.000  -0.000   0.000   0.000  -0.000   0.001   0.000


------------------------ aborting loop because EDIFF is reached ----------------------------------------


    CHARGE:  cpu time      0.6737: real time      0.6739
    FORLOC:  cpu time      0.0022: real time      0.0022
    FORNL :  cpu time      3.1491: real time      3.1494
    STRESS:  cpu time     39.0200: real time     39.0292
    FORCOR:  cpu time      0.0620: real time      0.0620
    FORHAR:  cpu time      0.0076: real time      0.0076
    MIXING:  cpu time      0.0069: real time      0.0069
    OFIELD:  cpu time      0.0001: real time      0.0001

  FORCE on cell =-STRESS in cart. coord.  units (eV):
  Direction    XX          YY          ZZ          XY          YZ          ZX
  --------------------------------------------------------------------------------------
  Alpha Z    23.01523    23.01523    23.01523
  Ewald    9327.73960  9328.27386-10982.94561     0.44962     3.92379     2.13125
  Hartree  9931.57445  9931.94652 -9529.35320     0.30303     3.72171     2.02001
  E(xc)    -209.09778  -209.09753  -209.36096     0.00016     0.00074     0.00045
  Local  -20281.28216-20282.18482 19485.90070    -0.74620    -7.63518    -4.14588
  n-local   476.63784   476.63885   475.39834     0.00155    -0.00562    -0.00336
  augment   -58.77855   -58.77927   -58.92941    -0.00064     0.00130     0.00073
  Kinetic   788.39052   788.40811   795.95371     0.00907    -0.01237    -0.00576
  Fock        0.00000     0.00000     0.00000     0.00000     0.00000     0.00000
  -------------------------------------------------------------------------------------
  Total      -1.80085    -1.77906    -0.32121     0.01659    -0.00563    -0.00256
  in kB      -3.85741    -3.81075    -0.68804     0.03554    -0.01206    -0.00549
  external pressure =       -2.79 kB  Pullay stress =        0.00 kB


 VOLUME and BASIS-vectors are now :
 -----------------------------------------------------------------------------
  energy-cutoff  :      400.00
  volume of cell :      747.98
      direct lattice vectors                 reciprocal lattice vectors
     6.154088000 -0.002745000  0.000611000     0.162535521  0.093943719 -0.000034071
    -3.079421000  5.327821000  0.000675000     0.000083745  0.187742402 -0.000035214
     0.002310000  0.004279000 22.818631000    -0.000004355 -0.000008069  0.043823840

  length of vectors
     6.154088643  6.153739575 22.818631518     0.187731774  0.187742424  0.043823841


 FORCES acting on ions
    electron-ion (+dipol)            ewald-force                    non-local-force                 convergence-correction
 -----------------------------------------------------------------------------------------------
   -.188E+00 0.119E+00 0.956E-03   0.191E+00 -.121E+00 -.113E-02   0.191E-03 0.338E-04 -.320E-03   0.328E-05 -.111E-05 -.497E-06
   0.184E+00 -.117E+00 -.625E-02   -.186E+00 0.118E+00 0.588E-02   0.410E-05 -.145E-03 0.629E-04   -.408E-05 0.107E-05 -.141E-06
   -.363E+02 0.629E+02 -.482E+03   0.373E+02 -.646E+02 0.485E+03   -.101E+01 0.176E+01 -.302E+01   -.857E-04 -.889E-04 -.814E-03
   -.363E+02 -.628E+02 -.481E+03   0.373E+02 0.646E+02 0.484E+03   -.103E+01 -.178E+01 -.301E+01   0.116E-03 -.378E-04 -.829E-03
   0.726E+02 -.342E-01 -.482E+03   -.746E+02 0.306E-01 0.485E+03   0.203E+01 0.513E-02 -.302E+01   -.349E-04 0.123E-03 -.818E-03
   0.363E+02 0.628E+02 0.481E+03   -.373E+02 -.646E+02 -.484E+03   0.103E+01 0.178E+01 0.301E+01   0.929E-04 -.831E-04 0.832E-03
   0.363E+02 -.629E+02 0.482E+03   -.373E+02 0.646E+02 -.485E+03   0.101E+01 -.176E+01 0.302E+01   -.121E-03 -.304E-04 0.816E-03
   -.726E+02 0.302E-01 0.482E+03   0.746E+02 -.268E-01 -.485E+03   -.203E+01 -.507E-02 0.302E+01   0.300E-04 0.117E-03 0.816E-03
 -----------------------------------------------------------------------------------------------
   -.178E-03 0.110E-03 -.448E-03   -.142E-13 0.731E-14 0.000E+00   0.180E-03 -.110E-03 0.440E-03   -.339E-05 -.199E-06 0.127E-05
 
 
 POSITION                                       TOTAL-FORCE (eV/Angst)
 -----------------------------------------------------------------------------------
      3.07754      1.77613     11.40996         0.002670     -0.001307     -0.000490
      6.15511     -0.00049     11.40994        -0.002586      0.001264     -0.000313
      1.96177      0.15636     12.73298        -0.017411      0.033203     -0.029150
      5.04091      1.62328     12.73015        -0.021253     -0.037046     -0.025112
      2.23078      3.55119     12.73376         0.037630      0.001712     -0.029571
      4.19176      0.15234     10.08970         0.021197      0.037209      0.025374
      1.11679      1.62205     10.08626         0.017410     -0.033452      0.029459
      3.92244      3.55225     10.08677        -0.037657     -0.001583      0.029804
 -----------------------------------------------------------------------------------
    total drift:                               -0.000001     -0.000000     -0.000007


--------------------------------------------------------------------------------------------------------



  FREE ENERGIE OF THE ION-ELECTRON SYSTEM (eV)
  ---------------------------------------------------
  free  energy   TOTEN  =       -38.87756557 eV

  energy  without entropy=      -38.87756557  energy(sigma->0) =      -38.87756557
 


--------------------------------------------------------------------------------------------------------


    POTLOK:  cpu time      0.0803: real time      0.0803


--------------------------------------------------------------------------------------------------------


 writing wavefunctions
     LOOP+:  cpu time   1567.1805: real time   1567.6593
    4ORBIT:  cpu time      0.0000: real time      0.0000

 total amount of memory used by VASP MPI-rank0   390305. kBytes
=======================================================================

   base                                    :      30000. kBytes
   nonl-proj                               :     285085. kBytes
   fftplans                                :       1308. kBytes
   grid                                    :      10258. kBytes
   one-center                              :        248. kBytes
   wavefun                                 :      63406. kBytes
 
  
  
 General timing and accounting informations for this job:
 ========================================================
  
                  Total CPU time used (sec):     1579.142
                            User time (sec):     1569.501
                          System time (sec):        9.641
                         Elapsed time (sec):     1579.861
  
                   Maximum memory used (kb):      504524.
                   Average memory used (kb):          N/A
  
                          Minor page faults:        95480
                          Major page faults:         8515
                 Voluntary context switches:           77
