CrCl3 FAST RELAXATION                   
           1
     6.154088   -0.002745    0.000611
    -3.079421    5.327821    0.000675
     0.002310    0.004279   22.818631
   Cr   Cl
     2     6
Direct configuration=     1
   0.66673659  0.33327152  0.50000103
   0.99993200  0.00005715  0.49999678
   0.33303677  0.02431524  0.55991412
   0.97615759  0.30949873  0.55971000
   0.69101020  0.66638828  0.55992133
   0.69052433  0.02381943  0.44029028
   0.33361264  0.30901660  0.44008514
   0.97565723  0.66696118  0.44007979
Direct configuration=     2
   0.66670801  0.33329028  0.50000087
   0.99995948  0.00004022  0.49999858
   0.33307343  0.02659794  0.55899466
   0.97386995  0.30721153  0.55881691
   0.69328939  0.66641649  0.55900106
   0.69280511  0.02611166  0.44118281
   0.33358578  0.30673692  0.44100448
   0.97337621  0.66692310  0.44099910
Direct configuration=     3
   0.66667703  0.33331061  0.50000070
   0.99998926  0.00002187  0.50000053
   0.33311315  0.02907181  0.55799819
   0.97139074  0.30473277  0.55784902
   0.69575945  0.66644706  0.55800373
   0.69527690  0.02859586  0.44215010
   0.33355667  0.30426630  0.44200082
   0.97090416  0.66688184  0.44199540
