 vasp.6.5.1 10Mar25 (build Apr 08 2025 20:07:02) complex                        
  
 executed on             LinuxIFC date 2025.06.11  20:40:33
 running   42 mpi-ranks, on    1 nodes
 distrk:  each k-point on   42 cores,    1 groups
 distr:  one band on NCORE=   1 cores,   42 groups


--------------------------------------------------------------------------------------------------------


 INCAR:
   SYSTEM = CrCl3 Band Structure
   ENCUT = 400
   EDIFF = 1E-5
   PREC = Normal
   ISMEAR = 0
   SIGMA = 0.1
   ISPIN = 2
   MAGMOM = 2*3.0 6*0.6
   LCHARG = .FALSE.
   LWAVE = .FALSE.
   ICHARG = 11
   LORBIT = 11

 POTCAR:    PAW_PBE Cr 06Sep2000                  
 POTCAR:    PAW_PBE Cl 06Sep2000                  
 -----------------------------------------------------------------------------
|                                                                             |
|           W    W    AA    RRRRR   N    N  II  N    N   GGGG   !!!           |
|           W    W   A  A   R    R  NN   N  II  NN   N  G    G  !!!           |
|           W    W  A    A  R    R  N N  N  II  N N  N  G       !!!           |
|           W WW W  AAAAAA  RRRRR   N  N N  II  N  N N  G  GGG   !            |
|           WW  WW  A    A  R   R   N   NN  II  N   NN  G    G                |
|           W    W  A    A  R    R  N    N  II  N    N   GGGG   !!!           |
|                                                                             |
|     For optimal performance we recommend to set                             |
|       NCORE = 2 up to number-of-cores-per-socket                            |
|     NCORE specifies how many cores store one orbital (NPAR=cpu/NCORE).      |
|     This setting can greatly improve the performance of VASP for DFT.       |
|     The default, NCORE=1 might be grossly inefficient on modern             |
|     multi-core architectures or massively parallel machines. Do your        |
|     own testing! More info at https://www.vasp.at/wiki/index.php/NCORE      |
|     Unfortunately you need to use the default for GW and RPA                |
|     calculations (for HF NCORE is supported but not extensively tested      |
|     yet).                                                                   |
|                                                                             |
 -----------------------------------------------------------------------------

 POTCAR:    PAW_PBE Cr 06Sep2000                  
   SHA256 =  56e7271fac8042f322b235801e26979132a24da65eb043fa6a03029023cb2fcc Cr/POTCAR             
   COPYR  = (c) Copyright 06Sep2000 Georg Kresse                                                    
   COPYR  = This file is part of the software VASP. Any use, copying, and all other rights are regul
   COPYR  = If you do not have a valid VASP license, you may not use, copy or distribute this file. 
   VRHFIN =Cr : d5 s1                                                                               
   LEXCH  = PE                                                                                      
   EATOM  =   276.8859 eV,   20.3505 Ry                                                             
                                                                                                    
   TITEL  = PAW_PBE Cr 06Sep2000                                                                    
   LULTRA =        F    use ultrasoft PP ?                                                          
   IUNSCR =        1    unscreen: 0-lin 1-nonlin 2-no                                               
   RPACOR =    2.080    partial core radius                                                         
   POMASS =   51.996; ZVAL   =    6.000    mass and valenz                                          
   RCORE  =    2.500    outmost cutoff radius                                                       
   RWIGS  =    2.500; RWIGS  =    1.323    wigner-seitz radius (au A)                               
   ENMAX  =  227.080; ENMIN  =  170.310 eV                                                          
   RCLOC  =    1.721    cutoff for local pot                                                        
   LCOR   =        T    correct aug charges                                                         
   LPAW   =        T    paw PP                                                                      
   EAUG   =  402.108                                                                                
   DEXC   =    0.000                                                                                
   RMAX   =    2.552    core radius for proj-oper                                                   
   RAUG   =    1.300    factor for augmentation sphere                                              
   RDEP   =    2.609    radius for radial grids                                                     
   RDEPT  =    2.065    core radius for aug-charge                                                  
                                                                                                    
   Atomic configuration                                                                             
    9 entries                                                                                       
     n  l   j            E        occ.                                                              
     1  0  0.50     -5880.4963   2.0000                                                             
     2  0  0.50      -667.0865   2.0000                                                             
     2  1  1.50      -560.6250   6.0000                                                             
     3  0  0.50       -73.9860   2.0000                                                             
     3  1  1.50       -45.4378   6.0000                                                             
     3  2  2.50        -2.9137   5.0000                                                             
     4  0  0.50        -4.0071   1.0000                                                             
     4  1  0.50        -1.2789   0.0000                                                             
     4  3  2.50        -1.3606   0.0000                                                             
   Description                                                                                      
     l       E           TYP  RCUT    TYP  RCUT                                                     
     2     -2.9136677     23  2.500                                                                 
     2     -4.2742503     23  2.500                                                                 
     0     -4.0071322     23  2.500                                                                 
     0      9.4498801     23  2.500                                                                 
     1     -5.4423304     23  2.500                                                                 
     1     27.2116520     23  2.500                                                                 
  local pseudopotential read in
  partial core-charges read in
  partial kinetic energy density read in
  atomic valenz-charges read in
  non local Contribution for L=           2  read in
    real space projection operators read in
  non local Contribution for L=           2  read in
    real space projection operators read in
  non local Contribution for L=           0  read in
    real space projection operators read in
  non local Contribution for L=           0  read in
    real space projection operators read in
  non local Contribution for L=           1  read in
    real space projection operators read in
  non local Contribution for L=           1  read in
    real space projection operators read in
    PAW grid and wavefunctions read in
 
   number of l-projection  operators is LMAX  =           6
   number of lm-projection operators is LMMAX =          18
 
 POTCAR:    PAW_PBE Cl 06Sep2000                  
   SHA256 =  9f1b6e6ed4247ac726a768b330d26d7667cc3c95a39ff49c1d064c2d9dcce931 Cl/POTCAR             
   COPYR  = (c) Copyright 06Sep2000 Georg Kresse                                                    
   COPYR  = This file is part of the software VASP. Any use, copying, and all other rights are regul
   COPYR  = If you do not have a valid VASP license, you may not use, copy or distribute this file. 
   VRHFIN =Cl: s2p5                                                                                 
   LEXCH  = PE                                                                                      
   EATOM  =   409.7259 eV,   30.1140 Ry                                                             
                                                                                                    
   TITEL  = PAW_PBE Cl 06Sep2000                                                                    
   LULTRA =        F    use ultrasoft PP ?                                                          
   IUNSCR =        1    unscreen: 0-lin 1-nonlin 2-no                                               
   RPACOR =    1.500    partial core radius                                                         
   POMASS =   35.453; ZVAL   =    7.000    mass and valenz                                          
   RCORE  =    1.900    outmost cutoff radius                                                       
   RWIGS  =    2.100; RWIGS  =    1.111    wigner-seitz radius (au A)                               
   ENMAX  =  262.472; ENMIN  =  196.854 eV                                                          
   ICORE  =        2    local potential                                                             
   LCOR   =        T    correct aug charges                                                         
   LPAW   =        T    paw PP                                                                      
   EAUG   =  356.192                                                                                
   DEXC   =    0.000                                                                                
   RMAX   =    1.945    core radius for proj-oper                                                   
   RAUG   =    1.300    factor for augmentation sphere                                              
   RDEP   =    2.020    radius for radial grids                                                     
   RDEPT  =    1.678    core radius for aug-charge                                                  
                                                                                                    
   Atomic configuration                                                                             
    6 entries                                                                                       
     n  l   j            E        occ.                                                              
     1  0  0.50     -2751.1850   2.0000                                                             
     2  0  0.50      -252.6861   2.0000                                                             
     2  1  1.50      -191.6157   6.0000                                                             
     3  0  0.50       -20.6916   2.0000                                                             
     3  1  0.50        -8.5949   5.0000                                                             
     3  2  1.50        -8.1635   0.0000                                                             
   Description                                                                                      
     l       E           TYP  RCUT    TYP  RCUT                                                     
     0    -20.6915656     23  1.900                                                                 
     0    -22.0521482     23  1.900                                                                 
     1     -8.5948577     23  1.900                                                                 
     1     -5.3847331     23  1.900                                                                 
     2     -8.1634956     23  1.900                                                                 
  local pseudopotential read in
  partial core-charges read in
  partial kinetic energy density read in
  atomic valenz-charges read in
  non local Contribution for L=           0  read in
    real space projection operators read in
  non local Contribution for L=           0  read in
    real space projection operators read in
  non local Contribution for L=           1  read in
    real space projection operators read in
  non local Contribution for L=           1  read in
    real space projection operators read in
    PAW grid and wavefunctions read in
 
   number of l-projection  operators is LMAX  =           4
   number of lm-projection operators is LMMAX =           8
 
  PAW_PBE Cr 06Sep2000                  :
 energy of atom  1       EATOM= -276.8859
 kinetic energy error for atom=    0.0018 (will be added to EATOM!!)
  PAW_PBE Cl 06Sep2000                  :
 energy of atom  2       EATOM= -409.7259
 kinetic energy error for atom=    0.0089 (will be added to EATOM!!)
 
 
 POSCAR: 
 -----------------------------------------------------------------------------
|                                                                             |
|           W    W    AA    RRRRR   N    N  II  N    N   GGGG   !!!           |
|           W    W   A  A   R    R  NN   N  II  NN   N  G    G  !!!           |
|           W    W  A    A  R    R  N N  N  II  N N  N  G       !!!           |
|           W WW W  AAAAAA  RRRRR   N  N N  II  N  N N  G  GGG   !            |
|           WW  WW  A    A  R   R   N   NN  II  N   NN  G    G                |
|           W    W  A    A  R    R  N    N  II  N    N   GGGG   !!!           |
|                                                                             |
|     Inconsistent Bravais lattice types found for crystalline and            |
|     reciprocal lattice:                                                     |
|                                                                             |
|        Crystalline: base-centered monoclinic                                |
|        Reciprocal : triclinic                                               |
|                    (instead of base-centered monoclinic)                    |
|                                                                             |
|     In most cases this is due to inaccuracies in the specification of       |
|     the crytalline lattice vectors.                                         |
|                                                                             |
|     Suggested SOLUTIONS:                                                    |
|      ) Refine the lattice parameters of your structure,                     |
|      ) and/or try changing SYMPREC.                                         |
|                                                                             |
 -----------------------------------------------------------------------------

  positions in direct lattice
  velocities in cartesian coordinates


 exchange-correlation table for PE
   RHO(1)=    0.500       N(1)  =     2000
   RHO(2)=  100.500       N(2)  =     4000
 


--------------------------------------------------------------------------------------------------------


 ion  position               nearest neighbor table
   1  0.667  0.333  0.500-   3 2.37   8 2.37   5 2.37   7 2.37   4 2.37   6 2.37
   2  1.000  0.000  0.500-   7 2.37   5 2.37   3 2.37   8 2.37   4 2.37   6 2.37
   3  0.333  0.029  0.558-   1 2.37   2 2.37
   4  0.971  0.305  0.558-   2 2.37   1 2.37
   5  0.696  0.666  0.558-   2 2.37   1 2.37
   6  0.695  0.029  0.442-   2 2.37   1 2.37
   7  0.334  0.304  0.442-   2 2.37   1 2.37
   8  0.971  0.667  0.442-   1 2.37   2 2.37
 
  LATTYP: Found a base centered monoclinic cell.
 ALAT       =    46.0522173584
 B/A-ratio  =     0.2315140720
 C/A-ratio  =     0.4954947411
 COS(beta)  =    -0.9910458493
  
  Lattice vectors:
  
 A1 = (  -6.1563980000,  -0.0015340000, -22.8192420000)
 A2 = (   3.0771110000,  -5.3321000000, -22.8193060000)
 A3 = (   0.0023100000,   0.0042790000,  22.8186310000)


Analysis of symmetry for initial positions (statically):
=====================================================================
 Subroutine PRICEL returns:
 Original cell was already a primitive cell.
 

 Routine SETGRP: Setting up the symmetry group for a 
 base centered monoclinic supercell.


 Subroutine GETGRP returns: Found  1 space group operations
 (whereof  1 operations were pure point group operations)
 out of a pool of  4 trial point group operations.


The static configuration has the point symmetry C_1 .


Analysis of symmetry for dynamics (positions and initial velocities):
=====================================================================
 Subroutine PRICEL returns:
 Original cell was already a primitive cell.
 

 Routine SETGRP: Setting up the symmetry group for a 
 base centered monoclinic supercell.


 Subroutine GETGRP returns: Found  1 space group operations
 (whereof  1 operations were pure point group operations)
 out of a pool of  4 trial point group operations.


The dynamic configuration has the point symmetry C_1 .


Analysis of structural, dynamic, and magnetic symmetry:
=====================================================================
 Subroutine PRICEL returns:
 Original cell was already a primitive cell.
 

 Routine SETGRP: Setting up the symmetry group for a 
 base centered monoclinic supercell.


 Subroutine GETGRP returns: Found  1 space group operations
 (whereof  1 operations were pure point group operations)
 out of a pool of  4 trial point group operations.


The overall configuration has the point symmetry C_1 .


 Subroutine INISYM returns: Found  1 space group operations
 (whereof  1 operations are pure point group operations),
 and found     1 'primitive' translations


----------------------------------------------------------------------------------------

                                     Primitive cell                                     

  volume of cell :     747.9816

  direct lattice vectors                    reciprocal lattice vectors
     6.154088000 -0.002745000  0.000611000     0.162535521  0.093943719 -0.000034071
    -3.079421000  5.327821000  0.000675000     0.000083745  0.187742402 -0.000035214
     0.002310000  0.004279000 22.818631000    -0.000004355 -0.000008069  0.043823840

  length of vectors
     6.154088643  6.153739575 22.818631518     0.187731774  0.187742424  0.043823841

  position of ions in fractional coordinates (direct lattice)
     0.666677028  0.333310611  0.500000695
     0.999989260  0.000021870  0.500000530
     0.333113150  0.029071810  0.557998187
     0.971390735  0.304732769  0.557849020
     0.695759454  0.666447055  0.558003728
     0.695276901  0.028595863  0.442150097
     0.333556670  0.304266304  0.442000817
     0.970904157  0.666881836  0.441995401

  ion indices of the primitive-cell ions
   primitive index   ion index
                 1           1
                 2           2
                 3           3
                 4           4
                 5           5
                 6           6
                 7           7
                 8           8

----------------------------------------------------------------------------------------

 
 
 KPOINTS: K-Path Generated by VASPKIT.            

Interpolating k-points between supplied coordinates.

 Line segments in fractional coordinates (reciprocal lattice):
    0.000000  0.000000  0.000000  ...  0.500000  0.000000  0.000000
    0.500000  0.000000  0.000000  ...  0.333333  0.333333  0.000000
    0.333333  0.333333  0.000000  ...  0.000000  0.000000  0.000000

 Generated    20 points on each line segment, for a total of     60 k-points:

 Following reciprocal coordinates:
            Coordinates               Weight
  0.000000  0.000000  0.000000      0.016667
  0.026316  0.000000  0.000000      0.016667
  0.052632  0.000000  0.000000      0.016667
  0.078947  0.000000  0.000000      0.016667
  0.105263  0.000000  0.000000      0.016667
  0.131579  0.000000  0.000000      0.016667
  0.157895  0.000000  0.000000      0.016667
  0.184211  0.000000  0.000000      0.016667
  0.210526  0.000000  0.000000      0.016667
  0.236842  0.000000  0.000000      0.016667
  0.263158  0.000000  0.000000      0.016667
  0.289474  0.000000  0.000000      0.016667
  0.315789  0.000000  0.000000      0.016667
  0.342105  0.000000  0.000000      0.016667
  0.368421  0.000000  0.000000      0.016667
  0.394737  0.000000  0.000000      0.016667
  0.421053  0.000000  0.000000      0.016667
  0.447368  0.000000  0.000000      0.016667
  0.473684  0.000000  0.000000      0.016667
  0.500000  0.000000  0.000000      0.016667
  0.500000  0.000000  0.000000      0.016667
  0.491228  0.017544  0.000000      0.016667
  0.482456  0.035088  0.000000      0.016667
  0.473684  0.052632  0.000000      0.016667
  0.464912  0.070175  0.000000      0.016667
  0.456140  0.087719  0.000000      0.016667
  0.447368  0.105263  0.000000      0.016667
  0.438596  0.122807  0.000000      0.016667
  0.429825  0.140351  0.000000      0.016667
  0.421053  0.157895  0.000000      0.016667
  0.412281  0.175439  0.000000      0.016667
  0.403509  0.192982  0.000000      0.016667
  0.394737  0.210526  0.000000      0.016667
  0.385965  0.228070  0.000000      0.016667
  0.377193  0.245614  0.000000      0.016667
  0.368421  0.263158  0.000000      0.016667
  0.359649  0.280702  0.000000      0.016667
  0.350877  0.298246  0.000000      0.016667
  0.342105  0.315789  0.000000      0.016667
  0.333333  0.333333  0.000000      0.016667
  0.333333  0.333333  0.000000      0.016667
  0.315789  0.315789  0.000000      0.016667
  0.298246  0.298246  0.000000      0.016667
  0.280702  0.280702  0.000000      0.016667
  0.263158  0.263158  0.000000      0.016667
  0.245614  0.245614  0.000000      0.016667
  0.228070  0.228070  0.000000      0.016667
  0.210526  0.210526  0.000000      0.016667
  0.192982  0.192982  0.000000      0.016667
  0.175439  0.175439  0.000000      0.016667
  0.157895  0.157895  0.000000      0.016667
  0.140351  0.140351  0.000000      0.016667
  0.122807  0.122807  0.000000      0.016667
  0.105263  0.105263  0.000000      0.016667
  0.087719  0.087719  0.000000      0.016667
  0.070175  0.070175  0.000000      0.016667
  0.052632  0.052632  0.000000      0.016667
  0.035088  0.035088  0.000000      0.016667
  0.017544  0.017544  0.000000      0.016667
  0.000000  0.000000  0.000000      0.016667

 Following cartesian coordinates:
            Coordinates               Weight
  0.000000  0.000000  0.000000      0.016667
  0.004277  0.002472 -0.000001      0.016667
  0.008555  0.004944 -0.000002      0.016667
  0.012832  0.007417 -0.000003      0.016667
  0.017109  0.009889 -0.000004      0.016667
  0.021386  0.012361 -0.000004      0.016667
  0.025664  0.014833 -0.000005      0.016667
  0.029941  0.017305 -0.000006      0.016667
  0.034218  0.019778 -0.000007      0.016667
  0.038495  0.022250 -0.000008      0.016667
  0.042773  0.024722 -0.000009      0.016667
  0.047050  0.027194 -0.000010      0.016667
  0.051327  0.029666 -0.000011      0.016667
  0.055604  0.032139 -0.000012      0.016667
  0.059882  0.034611 -0.000013      0.016667
  0.064159  0.037083 -0.000013      0.016667
  0.068436  0.039555 -0.000014      0.016667
  0.072713  0.042027 -0.000015      0.016667
  0.076991  0.044500 -0.000016      0.016667
  0.081268  0.046972 -0.000017      0.016667
  0.081268  0.046972 -0.000017      0.016667
  0.079843  0.049442 -0.000017      0.016667
  0.078419  0.051911 -0.000018      0.016667
  0.076995  0.054381 -0.000018      0.016667
  0.075571  0.056850 -0.000018      0.016667
  0.074146  0.059320 -0.000019      0.016667
  0.072722  0.061790 -0.000019      0.016667
  0.071298  0.064259 -0.000019      0.016667
  0.069874  0.066729 -0.000020      0.016667
  0.068449  0.069199 -0.000020      0.016667
  0.067025  0.071668 -0.000020      0.016667
  0.065601  0.074138 -0.000021      0.016667
  0.064176  0.076608 -0.000021      0.016667
  0.062752  0.079077 -0.000021      0.016667
  0.061328  0.081547 -0.000022      0.016667
  0.059904  0.084017 -0.000022      0.016667
  0.058479  0.086486 -0.000022      0.016667
  0.057055  0.088956 -0.000022      0.016667
  0.055631  0.091426 -0.000023      0.016667
  0.054206  0.093895 -0.000023      0.016667
  0.054206  0.093895 -0.000023      0.016667
  0.051353  0.088954 -0.000022      0.016667
  0.048500  0.084012 -0.000021      0.016667
  0.045648  0.079070 -0.000019      0.016667
  0.042795  0.074128 -0.000018      0.016667
  0.039942  0.069186 -0.000017      0.016667
  0.037089  0.064244 -0.000016      0.016667
  0.034236  0.059302 -0.000015      0.016667
  0.031383  0.054360 -0.000013      0.016667
  0.028530  0.049419 -0.000012      0.016667
  0.025677  0.044477 -0.000011      0.016667
  0.022824  0.039535 -0.000010      0.016667
  0.019971  0.034593 -0.000009      0.016667
  0.017118  0.029651 -0.000007      0.016667
  0.014265  0.024709 -0.000006      0.016667
  0.011412  0.019767 -0.000005      0.016667
  0.008559  0.014826 -0.000004      0.016667
  0.005706  0.009884 -0.000002      0.016667
  0.002853  0.004942 -0.000001      0.016667
  0.000000  0.000000 -0.000000      0.016667
 


--------------------------------------------------------------------------------------------------------




 Dimension of arrays:
   k-points           NKPTS =     60   k-points in BZ     NKDIM =     60   number of bands    NBANDS=     42
   number of dos      NEDOS =    301   number of ions     NIONS =      8
   non local maximal  LDIM  =      6   non local SUM 2l+1 LMDIM =     18
   total plane-waves  NPLWV = 100800
   max r-space proj   IRMAX =      1   max aug-charges    IRDMAX=   7083
   dimension x,y,z NGX =    30 NGY =   30 NGZ =  112
   dimension x,y,z NGXF=    60 NGYF=   60 NGZF=  224
   support grid    NGXF=    60 NGYF=   60 NGZF=  224
   ions per type =               2   6
   NGX,Y,Z   is equivalent  to a cutoff of   8.10,  8.10,  8.16 a.u.
   NGXF,Y,Z  is equivalent  to a cutoff of  16.21, 16.21, 16.32 a.u.

 SYSTEM =  CrCl3 Band Structure                    
 POSCAR =                                          

 Startparameter for this run:
   NWRITE =      2    write-flag & timer
   PREC   = normal    normal or accurate (medium, high low for compatibility)
   ISTART =      0    job   : 0-new  1-cont  2-samecut
   ICHARG =     11    charge: 1-file 2-atom 10-const
   ISPIN  =      2    spin polarized calculation?
   LNONCOLLINEAR =      F non collinear calculations
   LSORBIT =      F    spin-orbit coupling
   INIWAV =      1    electr: 0-lowe 1-rand  2-diag
   LASPH  =      F    aspherical Exc in radial PAW
 Electronic Relaxation 1
   ENCUT  =  400.0 eV  29.40 Ry    5.42 a.u.  10.04 10.04 37.21*2*pi/ulx,y,z
   ENINI  =  400.0     initial cutoff
   ENAUG  =  402.1 eV  augmentation charge cutoff
   NELM   =     60;   NELMIN=  2; NELMDL= -5     # of ELM steps 
   EDIFF  = 0.1E-04   stopping-criterion for ELM
   LREAL  =      F    real-space projection
   NLSPLINE    = F    spline interpolate recip. space projectors
   LCOMPAT=      F    compatible to vasp.4.4
   GGA_COMPAT  = T    GGA compatible to vasp.4.4-vasp.4.6
   LMAXPAW     = -100 max onsite density
   LMAXMIX     =    2 max onsite mixed and CHGCAR
   VOSKOWN=      0    Vosko Wilk Nusair interpolation
   ROPT   =    0.00000   0.00000
 Ionic relaxation
   EDIFFG = 0.1E-03   stopping-criterion for IOM
   NSW    =      0    number of steps for IOM
   NBLOCK =      1;   KBLOCK =      1    inner block; outer block 
   IBRION =     -1    ionic relax: 0-MD 1-quasi-New 2-CG
   NFREE  =      0    steps in history (QN), initial steepest desc. (CG)
   ISIF   =      2    stress and relaxation
   IWAVPR =     10    prediction:  0-non 1-charg 2-wave 3-comb
   ISYM   =      2    0-nonsym 1-usesym 2-fastsym
   LCORR  =      T    Harris-Foulkes like correction to forces

   POTIM  = 0.5000    time-step for ionic-motion
   TEIN   =    0.0    initial temperature
   TEBEG  =    0.0;   TEEND  =   0.0 temperature during run
   SMASS  =  -3.00    Nose mass-parameter (am)
   estimated Nose-frequenzy (Omega)   =  0.10E-29 period in steps = 0.13E+47 mass=  -0.865E-27a.u.
   SCALEE = 1.0000    scale energy and forces
   NPACO  =    256;   APACO  = 10.0  distance and # of slots for P.C.
   PSTRESS=    0.0 pullay stress

  Mass of Ions in am
   POMASS =  52.00 35.45
  Ionic Valenz
   ZVAL   =   6.00  7.00
  Atomic Wigner-Seitz radii
   RWIGS  =  -1.00 -1.00
  virtual crystal weights 
   VCA    =   1.00  1.00
   NELECT =      54.0000    total number of electrons
   NUPDOWN=      -1.0000    fix difference up-down

 DOS related values:
   EMIN   =  10.00;   EMAX   =-10.00  energy-range for DOS
   EFERMI =   0.00;   METHOD = LEGACY      
   ISMEAR =     0;   SIGMA  =   0.10  broadening in eV -4-tet -1-fermi 0-gaus
   EFERMI_NEDOS =   21; number of points for ismear=-14 and -15

 Electronic relaxation 2 (details)
   IALGO  =     38    algorithm
   LDIAG  =      T    sub-space diagonalisation (order eigenvalues)
   LSUBROT=      F    optimize rotation matrix (better conditioning)
   LROBUST=      F    robust break criterion during scf (extrapolated energy error)
   ISEARCH=      0    line search for conjugate gradient (0, 1=use gradient)
   TURBO    =      0    0=normal 1=particle mesh
   IRESTART =      0    0=no restart 2=restart with 2 vectors
   NREBOOT  =      0    no. of reboots
   NMIN     =      0    reboot dimension
   EREF     =   0.00    reference energy to select bands
   IMIX   =      4    mixing-type and parameters
     AMIX     =   0.40;   BMIX     =  1.00
     AMIX_MAG =   1.60;   BMIX_MAG =  1.00
     AMIN     =   0.10
     WC   =   100.;   INIMIX=   1;  MIXPRE=   1;  MAXMIX= -45

 Intra band minimization:
   WEIMIN = 0.0000     energy-eigenvalue tresh-hold
   EBREAK =  0.60E-07  absolut break condition
   DEPER  =   0.30     relativ break condition  

   TIME   =   0.40     timestep for ELM

  volume/ion in A,a.u.               =      93.50       630.95
  Fermi-wavevector in a.u.,A,eV,Ry     =   0.681673  1.288174  6.322320  0.464677
  Thomas-Fermi vector in A             =   1.760523
 
 Write flags
   LWAVE        =      F    write WAVECAR
   LDOWNSAMPLE  =      F    k-point downsampling of WAVECAR
   LCHARG       =      F    write CHGCAR
   LVTOT        =      F    write LOCPOT, total local potential
   LVHAR        =      F    write LOCPOT, Hartree potential only
   WRT_POTENTIAL= false  ! write potential to hdf5 file
   LELF         =      F    write electronic localiz. function (ELF)
   LORBIT       =     11    0 simple, 1 ext, 2 COOP (PROOUT), +10 PAW based schemes


 Python interface
   PLUGINS active      =      F    recompile with -DPLUGINS to activate
 
 Dipole corrections
   LMONO      =      F    monopole corrections only (constant potential shift)
   LDIPOL     =      F    correct potential (dipole corrections)
   IDIPOL     =      0    1-x, 2-y, 3-z, 4-all directions 
   EPSILON    =  1.0000000 bulk dielectric constant
   LVACPOTAV  =      F  vacuum potentials using an averaging scheme for the charge density
   VACPOTFLAT =  0.1000000 required flatness to determine vacuum potential
 
Coulomb truncation method
  LTRUNCATE          =      F  Coulomb kernel truncation to be used

 
 Exchange correlation treatment:
   GGA     = PE    functional components
   XC_C    = 1    coefficients multiplying the functional components
   LIBXC   =     F    Libxc                    
   VOSKOWN =     0    Vosko Wilk Nusair interpolation
   LHFCALC =     F    Hartree Fock is set to
   LHFONE  =     F    Hartree Fock one center treatment
   AEXX    =    0.0000 exact exchange contribution

 Parameters of functionals:
   PE:
     No parameter
 
 Van der Waals corrections
   IVDW    =     0    specifies the selected vdW correction

 Linear response parameters
   LEPSILON=     F    determine dielectric tensor
   LRPA    =     F    only Hartree local field effects (RPA)
   LNABLA  =     F    use nabla operator in PAW spheres
   LVEL    =     F    velocity operator in full k-point grid
   CSHIFT  =0.1000    complex shift for real part using Kramers Kronig
   OMEGAMAX=  -1.0    maximum frequency
   DEG_THRESHOLD= 0.2000000E-02 threshold for treating states as degnerate
   RTIME   =   -0.100 relaxation time in fs
  (WPLASMAI=    0.000 imaginary part of plasma frequency in eV, 0.658/RTIME)
   DFIELD  = 0.0000000 0.0000000 0.0000000 field for delta impulse in time
 
  Optional k-point grid parameters
   LKPOINTS_OPT  =     F    use optional k-point grid
   KPOINTS_OPT_MODE=     1    mode for optional k-point grid
 
 Orbital magnetization related:
   ORBITALMAG=     F  switch on orbital magnetization
   LCHIMAG   =     F  perturbation theory with respect to B field
   DQ        =  0.001000  dq finite difference perturbation B field
   LLRAUG    =     F  two centre corrections for induced B field
   LBONE     =     F  B-component reconstruction in AE one-centre
   LVGVCALC  =     T  calculate vGv susceptibility
   LVGVAPPL  =     F  apply vGv susceptibility instead of pGv for G=0

 Random number generation:
   RANDOM_GENERATOR = DEFAULT
   PCG_SEED         = not used


--------------------------------------------------------------------------------------------------------


 Static calculation
 charge density and potential remain constant during run
 spin polarized calculation
 Variant of blocked Davidson
 Davidson routine will perform the subspace rotation
 perform sub-space diagonalisation
    after iterative eigenvector-optimisation
 no mixing
 using additional bands           15
 reciprocal scheme for non local part
 use partial core corrections
 calculate Harris-corrections to forces 
   (improved forces if not selfconsistent)
 use gradient corrections 
 WARNING: stress and forces are not correct
  (second derivative of E(xc) not defined)
 use of overlap-Matrix (Vanderbilt PP)
 Gauss-broadening in eV      SIGMA  =   0.10


--------------------------------------------------------------------------------------------------------


  energy-cutoff  :      400.00
  volume of cell :      747.98
      direct lattice vectors                 reciprocal lattice vectors
     6.154088000 -0.002745000  0.000611000     0.162535521  0.093943719 -0.000034071
    -3.079421000  5.327821000  0.000675000     0.000083745  0.187742402 -0.000035214
     0.002310000  0.004279000 22.818631000    -0.000004355 -0.000008069  0.043823840

  length of vectors
     6.154088643  6.153739575 22.818631518     0.187731774  0.187742424  0.043823841


 
 k-points in units of 2pi/SCALE and weight: K-Path Generated by VASPKIT.            
   0.00000000  0.00000000  0.00000000       0.017
   0.00427725  0.00247220 -0.00000090       0.017
   0.00855450  0.00494441 -0.00000179       0.017
   0.01283175  0.00741661 -0.00000269       0.017
   0.01710900  0.00988881 -0.00000359       0.017
   0.02138625  0.01236102 -0.00000448       0.017
   0.02566350  0.01483322 -0.00000538       0.017
   0.02994075  0.01730542 -0.00000628       0.017
   0.03421800  0.01977763 -0.00000717       0.017
   0.03849525  0.02224983 -0.00000807       0.017
   0.04277251  0.02472203 -0.00000897       0.017
   0.04704976  0.02719423 -0.00000986       0.017
   0.05132701  0.02966644 -0.00001076       0.017
   0.05560426  0.03213864 -0.00001166       0.017
   0.05988151  0.03461084 -0.00001255       0.017
   0.06415876  0.03708305 -0.00001345       0.017
   0.06843601  0.03955525 -0.00001435       0.017
   0.07271326  0.04202745 -0.00001524       0.017
   0.07699051  0.04449966 -0.00001614       0.017
   0.08126776  0.04697186 -0.00001704       0.017
   0.08126776  0.04697186 -0.00001704       0.017
   0.07984348  0.04944152 -0.00001735       0.017
   0.07841920  0.05191118 -0.00001767       0.017
   0.07699492  0.05438084 -0.00001799       0.017
   0.07557064  0.05685049 -0.00001831       0.017
   0.07414636  0.05932015 -0.00001863       0.017
   0.07272207  0.06178981 -0.00001895       0.017
   0.07129779  0.06425947 -0.00001927       0.017
   0.06987351  0.06672913 -0.00001959       0.017
   0.06844923  0.06919879 -0.00001991       0.017
   0.06702495  0.07166845 -0.00002022       0.017
   0.06560067  0.07413810 -0.00002054       0.017
   0.06417639  0.07660776 -0.00002086       0.017
   0.06275211  0.07907742 -0.00002118       0.017
   0.06132783  0.08154708 -0.00002150       0.017
   0.05990355  0.08401674 -0.00002182       0.017
   0.05847926  0.08648640 -0.00002214       0.017
   0.05705498  0.08895606 -0.00002246       0.017
   0.05563070  0.09142571 -0.00002278       0.017
   0.05420642  0.09389537 -0.00002309       0.017
   0.05420642  0.09389537 -0.00002309       0.017
   0.05135345  0.08895351 -0.00002188       0.017
   0.04850048  0.08401165 -0.00002066       0.017
   0.04564751  0.07906979 -0.00001945       0.017
   0.04279454  0.07412793 -0.00001823       0.017
   0.03994157  0.06918606 -0.00001702       0.017
   0.03708860  0.06424420 -0.00001580       0.017
   0.03423563  0.05930234 -0.00001459       0.017
   0.03138267  0.05436048 -0.00001337       0.017
   0.02852970  0.04941862 -0.00001216       0.017
   0.02567673  0.04447676 -0.00001094       0.017
   0.02282376  0.03953489 -0.00000972       0.017
   0.01997079  0.03459303 -0.00000851       0.017
   0.01711782  0.02965117 -0.00000729       0.017
   0.01426485  0.02470931 -0.00000608       0.017
   0.01141188  0.01976745 -0.00000486       0.017
   0.00855891  0.01482559 -0.00000365       0.017
   0.00570594  0.00988372 -0.00000243       0.017
   0.00285297  0.00494186 -0.00000122       0.017
   0.00000000  0.00000000 -0.00000000       0.017
 
 k-points in reciprocal lattice and weights: K-Path Generated by VASPKIT.            
   0.00000000  0.00000000  0.00000000       0.017
   0.02631579  0.00000000  0.00000000       0.017
   0.05263158  0.00000000  0.00000000       0.017
   0.07894737  0.00000000  0.00000000       0.017
   0.10526316  0.00000000  0.00000000       0.017
   0.13157895  0.00000000  0.00000000       0.017
   0.15789474  0.00000000  0.00000000       0.017
   0.18421053  0.00000000  0.00000000       0.017
   0.21052632  0.00000000  0.00000000       0.017
   0.23684211  0.00000000  0.00000000       0.017
   0.26315789  0.00000000  0.00000000       0.017
   0.28947368  0.00000000  0.00000000       0.017
   0.31578947  0.00000000  0.00000000       0.017
   0.34210526  0.00000000  0.00000000       0.017
   0.36842105  0.00000000  0.00000000       0.017
   0.39473684  0.00000000  0.00000000       0.017
   0.42105263  0.00000000  0.00000000       0.017
   0.44736842  0.00000000  0.00000000       0.017
   0.47368421  0.00000000  0.00000000       0.017
   0.50000000  0.00000000  0.00000000       0.017
   0.50000000  0.00000000  0.00000000       0.017
   0.49122807  0.01754386  0.00000000       0.017
   0.48245614  0.03508772  0.00000000       0.017
   0.47368421  0.05263158  0.00000000       0.017
   0.46491228  0.07017544  0.00000000       0.017
   0.45614035  0.08771930  0.00000000       0.017
   0.44736842  0.10526316  0.00000000       0.017
   0.43859649  0.12280702  0.00000000       0.017
   0.42982456  0.14035088  0.00000000       0.017
   0.42105263  0.15789474  0.00000000       0.017
   0.41228070  0.17543860  0.00000000       0.017
   0.40350877  0.19298246  0.00000000       0.017
   0.39473684  0.21052632  0.00000000       0.017
   0.38596491  0.22807018  0.00000000       0.017
   0.37719298  0.24561404  0.00000000       0.017
   0.36842105  0.26315789  0.00000000       0.017
   0.35964912  0.28070175  0.00000000       0.017
   0.35087719  0.29824561  0.00000000       0.017
   0.34210526  0.31578947  0.00000000       0.017
   0.33333333  0.33333333  0.00000000       0.017
   0.33333333  0.33333333  0.00000000       0.017
   0.31578947  0.31578947  0.00000000       0.017
   0.29824561  0.29824561  0.00000000       0.017
   0.28070175  0.28070175  0.00000000       0.017
   0.26315789  0.26315789  0.00000000       0.017
   0.24561404  0.24561404  0.00000000       0.017
   0.22807018  0.22807018  0.00000000       0.017
   0.21052632  0.21052632  0.00000000       0.017
   0.19298246  0.19298246  0.00000000       0.017
   0.17543860  0.17543860  0.00000000       0.017
   0.15789474  0.15789474  0.00000000       0.017
   0.14035088  0.14035088  0.00000000       0.017
   0.12280702  0.12280702  0.00000000       0.017
   0.10526316  0.10526316  0.00000000       0.017
   0.08771930  0.08771930  0.00000000       0.017
   0.07017544  0.07017544  0.00000000       0.017
   0.05263158  0.05263158  0.00000000       0.017
   0.03508772  0.03508772  0.00000000       0.017
   0.01754386  0.01754386  0.00000000       0.017
   0.00000000  0.00000000  0.00000000       0.017
 
 position of ions in fractional coordinates (direct lattice) 
   0.66667703  0.33331061  0.50000070
   0.99998926  0.00002187  0.50000053
   0.33311315  0.02907181  0.55799819
   0.97139074  0.30473277  0.55784902
   0.69575945  0.66644706  0.55800373
   0.69527690  0.02859586  0.44215010
   0.33355667  0.30426630  0.44200082
   0.97090416  0.66688184  0.44199540
 
 position of ions in cartesian coordinates  (Angst):
   3.07754040  1.77612875 11.40996369
   6.15510956 -0.00048895 11.40993861
   1.96177227  0.15636268 12.73297788
   5.04091221  1.62328222 12.73015015
   2.23078284  3.55118846 12.73375613
   4.19175790  0.15233707 10.08970404
   1.11679407  1.62205211 10.08626272
   3.92244070  3.55225322 10.08677332
 


--------------------------------------------------------------------------------------------------------


 k-point     1 :   0.0000 0.0000 0.0000  plane waves:   13529
 k-point     2 :   0.0263 0.0000 0.0000  plane waves:   13512
 k-point     3 :   0.0526 0.0000 0.0000  plane waves:   13529
 k-point     4 :   0.0789 0.0000 0.0000  plane waves:   13539
 k-point     5 :   0.1053 0.0000 0.0000  plane waves:   13549
 k-point     6 :   0.1316 0.0000 0.0000  plane waves:   13565
 k-point     7 :   0.1579 0.0000 0.0000  plane waves:   13560
 k-point     8 :   0.1842 0.0000 0.0000  plane waves:   13546
 k-point     9 :   0.2105 0.0000 0.0000  plane waves:   13558
 k-point    10 :   0.2368 0.0000 0.0000  plane waves:   13566
 k-point    11 :   0.2632 0.0000 0.0000  plane waves:   13573
 k-point    12 :   0.2895 0.0000 0.0000  plane waves:   13564
 k-point    13 :   0.3158 0.0000 0.0000  plane waves:   13572
 k-point    14 :   0.3421 0.0000 0.0000  plane waves:   13587
 k-point    15 :   0.3684 0.0000 0.0000  plane waves:   13592
 k-point    16 :   0.3947 0.0000 0.0000  plane waves:   13608
 k-point    17 :   0.4211 0.0000 0.0000  plane waves:   13592
 k-point    18 :   0.4474 0.0000 0.0000  plane waves:   13594
 k-point    19 :   0.4737 0.0000 0.0000  plane waves:   13590
 k-point    20 :   0.5000 0.0000 0.0000  plane waves:   13594
 k-point    21 :   0.5000 0.0000 0.0000  plane waves:   13594
 k-point    22 :   0.4912 0.0175 0.0000  plane waves:   13595
 k-point    23 :   0.4825 0.0351 0.0000  plane waves:   13591
 k-point    24 :   0.4737 0.0526 0.0000  plane waves:   13590
 k-point    25 :   0.4649 0.0702 0.0000  plane waves:   13586
 k-point    26 :   0.4561 0.0877 0.0000  plane waves:   13568
 k-point    27 :   0.4474 0.1053 0.0000  plane waves:   13573
 k-point    28 :   0.4386 0.1228 0.0000  plane waves:   13581
 k-point    29 :   0.4298 0.1404 0.0000  plane waves:   13581
 k-point    30 :   0.4211 0.1579 0.0000  plane waves:   13594
 k-point    31 :   0.4123 0.1754 0.0000  plane waves:   13612
 k-point    32 :   0.4035 0.1930 0.0000  plane waves:   13627
 k-point    33 :   0.3947 0.2105 0.0000  plane waves:   13638
 k-point    34 :   0.3860 0.2281 0.0000  plane waves:   13631
 k-point    35 :   0.3772 0.2456 0.0000  plane waves:   13629
 k-point    36 :   0.3684 0.2632 0.0000  plane waves:   13622
 k-point    37 :   0.3596 0.2807 0.0000  plane waves:   13609
 k-point    38 :   0.3509 0.2982 0.0000  plane waves:   13597
 k-point    39 :   0.3421 0.3158 0.0000  plane waves:   13592
 k-point    40 :   0.3333 0.3333 0.0000  plane waves:   13592
 k-point    41 :   0.3333 0.3333 0.0000  plane waves:   13592
 k-point    42 :   0.3158 0.3158 0.0000  plane waves:   13608
 k-point    43 :   0.2982 0.2982 0.0000  plane waves:   13611
 k-point    44 :   0.2807 0.2807 0.0000  plane waves:   13626
 k-point    45 :   0.2632 0.2632 0.0000  plane waves:   13607
 k-point    46 :   0.2456 0.2456 0.0000  plane waves:   13636
 k-point    47 :   0.2281 0.2281 0.0000  plane waves:   13636
 k-point    48 :   0.2105 0.2105 0.0000  plane waves:   13605
 k-point    49 :   0.1930 0.1930 0.0000  plane waves:   13597
 k-point    50 :   0.1754 0.1754 0.0000  plane waves:   13602
 k-point    51 :   0.1579 0.1579 0.0000  plane waves:   13583
 k-point    52 :   0.1404 0.1404 0.0000  plane waves:   13584
 k-point    53 :   0.1228 0.1228 0.0000  plane waves:   13574
 k-point    54 :   0.1053 0.1053 0.0000  plane waves:   13557
 k-point    55 :   0.0877 0.0877 0.0000  plane waves:   13566
 k-point    56 :   0.0702 0.0702 0.0000  plane waves:   13556
 k-point    57 :   0.0526 0.0526 0.0000  plane waves:   13535
 k-point    58 :   0.0351 0.0351 0.0000  plane waves:   13519
 k-point    59 :   0.0175 0.0175 0.0000  plane waves:   13505
 k-point    60 :   0.0000 0.0000 0.0000  plane waves:   13529

 maximum and minimum number of plane-waves per node :     13638    13505

 maximum number of plane-waves:     13638
 maximum index in each direction: 
   IXMAX=   10   IYMAX=   10   IZMAX=   37
   IXMIN=  -10   IYMIN=  -10   IZMIN=  -37


 serial   3D FFT for wavefunctions
 parallel 3D FFT for charge:
    minimum data exchange during FFTs selected (reduces bandwidth)


 total amount of memory used by VASP MPI-rank0   305753. kBytes
=======================================================================

   base                                    :      30000. kBytes
   nonl-proj                               :     237619. kBytes
   fftplans                                :       1259. kBytes
   grid                                    :      10258. kBytes
   one-center                              :        248. kBytes
   wavefun                                 :      26369. kBytes
 
     INWAV:  cpu time      0.0001: real time      0.0001
 initial charge density was supplied:
 number of electron      53.9999941 magnetization       5.9999989
 keeping initial charge density in first step


--------------------------------------------------------------------------------------------------------


 Maximum index for augmentation-charges          389 (set IRDMAX)


--------------------------------------------------------------------------------------------------------


 First call to EWALD:  gamma=   0.195
 Maximum number of real-space cells   4x   4x   1
 Maximum number of reciprocal cells   2x   2x   6

    FEWALD:  cpu time      0.0018: real time      0.0019


--------------------------------------- Ionic step        1  -------------------------------------------




--------------------------------------- Iteration      1(   1)  ---------------------------------------


    POTLOK:  cpu time      0.0798: real time      0.0798
    SETDIJ:  cpu time      0.0085: real time      0.0085
     EDDAV:  cpu time     23.1176: real time     23.1261
       DOS:  cpu time      0.0019: real time      0.0019
    --------------------------------------------
      LOOP:  cpu time     23.2078: real time     23.2162

 eigenvalue-minimisations  : 10080
 total energy-change (2. order) : 0.3764108E+03  (-0.1678105E+04)
 number of electron      53.9999941 magnetization       5.9999989
 augmentation part       53.9999941 magnetization       5.9999989

 Free energy of the ion-electron system (eV)
  ---------------------------------------------------
  alpha Z        PSCENC =        23.01523305
  Ewald energy   TEWEN  =      7673.06934580
  -Hartree energ DENC   =    -10334.18392833
  -exchange      EXHF   =         0.00000000
  -V(xc)+E(xc)   XCENC  =        85.97736076
  PAW double counting   =      3633.91577118    -3596.79446307
  entropy T*S    EENTRO =        -0.04062866
  eigenvalues    EBANDS =      -120.61794306
  atomic energy  EATOM  =      3012.07006103
  Solvation  Ediel_sol  =         0.00000000
  ---------------------------------------------------
  free energy    TOTEN  =       376.41080870 eV

  energy without entropy =      376.45143736  energy(sigma->0) =      376.43112303


--------------------------------------------------------------------------------------------------------




--------------------------------------- Iteration      1(   2)  ---------------------------------------


     EDDAV:  cpu time     42.0484: real time     42.0604
       DOS:  cpu time      0.0016: real time      0.0016
    --------------------------------------------
      LOOP:  cpu time     42.0500: real time     42.0620

 eigenvalue-minimisations  : 19110
 total energy-change (2. order) :-0.3882941E+03  (-0.3852142E+03)
 number of electron      53.9999941 magnetization       5.9999989
 augmentation part       53.9999941 magnetization       5.9999989

 Free energy of the ion-electron system (eV)
  ---------------------------------------------------
  alpha Z        PSCENC =        23.01523305
  Ewald energy   TEWEN  =      7673.06934580
  -Hartree energ DENC   =    -10334.18392833
  -exchange      EXHF   =         0.00000000
  -V(xc)+E(xc)   XCENC  =        85.97736076
  PAW double counting   =      3633.91577118    -3596.79446307
  entropy T*S    EENTRO =        -0.00486814
  eigenvalues    EBANDS =      -508.94780773
  atomic energy  EATOM  =      3012.07006103
  Solvation  Ediel_sol  =         0.00000000
  ---------------------------------------------------
  free energy    TOTEN  =       -11.88329546 eV

  energy without entropy =      -11.87842731  energy(sigma->0) =      -11.88086138


--------------------------------------------------------------------------------------------------------




--------------------------------------- Iteration      1(   3)  ---------------------------------------


     EDDAV:  cpu time     23.2637: real time     23.2709
       DOS:  cpu time      0.0012: real time      0.0012
    --------------------------------------------
      LOOP:  cpu time     23.2649: real time     23.2721

 eigenvalue-minimisations  : 10122
 total energy-change (2. order) :-0.2630185E+02  (-0.2621449E+02)
 number of electron      53.9999941 magnetization       5.9999989
 augmentation part       53.9999941 magnetization       5.9999989

 Free energy of the ion-electron system (eV)
  ---------------------------------------------------
  alpha Z        PSCENC =        23.01523305
  Ewald energy   TEWEN  =      7673.06934580
  -Hartree energ DENC   =    -10334.18392833
  -exchange      EXHF   =         0.00000000
  -V(xc)+E(xc)   XCENC  =        85.97736076
  PAW double counting   =      3633.91577118    -3596.79446307
  entropy T*S    EENTRO =        -0.00000000
  eigenvalues    EBANDS =      -535.25452151
  atomic energy  EATOM  =      3012.07006103
  Solvation  Ediel_sol  =         0.00000000
  ---------------------------------------------------
  free energy    TOTEN  =       -38.18514110 eV

  energy without entropy =      -38.18514110  energy(sigma->0) =      -38.18514110


--------------------------------------------------------------------------------------------------------




--------------------------------------- Iteration      1(   4)  ---------------------------------------


     EDDAV:  cpu time     43.9987: real time     44.0116
       DOS:  cpu time      0.0012: real time      0.0012
    --------------------------------------------
      LOOP:  cpu time     43.9998: real time     44.0128

 eigenvalue-minimisations  : 19950
 total energy-change (2. order) :-0.5522004E+00  (-0.5522004E+00)
 number of electron      53.9999941 magnetization       5.9999989
 augmentation part       53.9999941 magnetization       5.9999989

 Free energy of the ion-electron system (eV)
  ---------------------------------------------------
  alpha Z        PSCENC =        23.01523305
  Ewald energy   TEWEN  =      7673.06934580
  -Hartree energ DENC   =    -10334.18392833
  -exchange      EXHF   =         0.00000000
  -V(xc)+E(xc)   XCENC  =        85.97736076
  PAW double counting   =      3633.91577118    -3596.79446307
  entropy T*S    EENTRO =        -0.00000000
  eigenvalues    EBANDS =      -535.80672188
  atomic energy  EATOM  =      3012.07006103
  Solvation  Ediel_sol  =         0.00000000
  ---------------------------------------------------
  free energy    TOTEN  =       -38.73734146 eV

  energy without entropy =      -38.73734146  energy(sigma->0) =      -38.73734146


--------------------------------------------------------------------------------------------------------




--------------------------------------- Iteration      1(   5)  ---------------------------------------


     EDDAV:  cpu time     36.8192: real time     36.8312
       DOS:  cpu time      0.0012: real time      0.0012
    --------------------------------------------
      LOOP:  cpu time     36.8204: real time     36.8324

 eigenvalue-minimisations  : 16716
 total energy-change (2. order) :-0.3035352E-03  (-0.3035352E-03)
 number of electron      53.9999941 magnetization       5.9999989
 augmentation part       53.9999941 magnetization       5.9999989

 Free energy of the ion-electron system (eV)
  ---------------------------------------------------
  alpha Z        PSCENC =        23.01523305
  Ewald energy   TEWEN  =      7673.06934580
  -Hartree energ DENC   =    -10334.18392833
  -exchange      EXHF   =         0.00000000
  -V(xc)+E(xc)   XCENC  =        85.97736076
  PAW double counting   =      3633.91577118    -3596.79446307
  entropy T*S    EENTRO =        -0.00000000
  eigenvalues    EBANDS =      -535.80702542
  atomic energy  EATOM  =      3012.07006103
  Solvation  Ediel_sol  =         0.00000000
  ---------------------------------------------------
  free energy    TOTEN  =       -38.73764500 eV

  energy without entropy =      -38.73764500  energy(sigma->0) =      -38.73764500


--------------------------------------------------------------------------------------------------------




--------------------------------------- Iteration      1(   6)  ---------------------------------------


     EDDAV:  cpu time     44.2912: real time     44.3051
       DOS:  cpu time      0.0012: real time      0.0012
    --------------------------------------------
      LOOP:  cpu time     44.2924: real time     44.3063

 eigenvalue-minimisations  : 20076
 total energy-change (2. order) :-0.2084465E-05  (-0.2084466E-05)
 number of electron      53.9999941 magnetization       5.9999989
 augmentation part       53.9999941 magnetization       5.9999989

 Free energy of the ion-electron system (eV)
  ---------------------------------------------------
  alpha Z        PSCENC =        23.01523305
  Ewald energy   TEWEN  =      7673.06934580
  -Hartree energ DENC   =    -10334.18392833
  -exchange      EXHF   =         0.00000000
  -V(xc)+E(xc)   XCENC  =        85.97736076
  PAW double counting   =      3633.91577118    -3596.79446307
  entropy T*S    EENTRO =        -0.00000000
  eigenvalues    EBANDS =      -535.80702750
  atomic energy  EATOM  =      3012.07006103
  Solvation  Ediel_sol  =         0.00000000
  ---------------------------------------------------
  free energy    TOTEN  =       -38.73764708 eV

  energy without entropy =      -38.73764708  energy(sigma->0) =      -38.73764708


--------------------------------------------------------------------------------------------------------




 average (electrostatic) potential at core
  the test charge radii are     1.1394  0.9406
  (the norm of the test charge is              1.0000)
       1 -53.2895       2 -53.2895       3 -99.6768       4 -99.6755       5 -99.6768
       6 -99.6750       7 -99.6764       8 -99.6763
 
 
 
 E-fermi :  -4.2226     XC(G=0):  -2.5575     alpha+bet : -2.0165

 val. band max:       -4.7088669837   @ k =   0.5000   0.0000   0.0000
 cond. band min:      -3.2846598985   @ k =   0.3333   0.3333   0.0000
 fundamental gap:      1.4242070852
 Fermi energy:        -4.2226398225

 spin component 1

 k-point     1 :       0.0000    0.0000    0.0000
  band No.  band energies     occupation 
      1     -19.9280      1.00000
      2     -19.0989      1.00000
      3     -19.0331      1.00000
      4     -19.0327      1.00000
      5     -18.8855      1.00000
      6     -18.8854      1.00000
      7      -9.6801      1.00000
      8      -9.1927      1.00000
      9      -8.7583      1.00000
     10      -8.7541      1.00000
     11      -8.6978      1.00000
     12      -8.6908      1.00000
     13      -8.3808      1.00000
     14      -8.3773      1.00000
     15      -8.2950      1.00000
     16      -7.5465      1.00000
     17      -7.5430      1.00000
     18      -7.5389      1.00000
     19      -6.7030      1.00000
     20      -6.4384      1.00000
     21      -6.3942      1.00000
     22      -6.3892      1.00000
     23      -6.1390      1.00000
     24      -6.1363      1.00000
     25      -5.5388      1.00000
     26      -5.1830      1.00000
     27      -5.1826      1.00000
     28      -5.0534      1.00000
     29      -4.9351      1.00000
     30      -4.9338      1.00000
     31      -3.2326      0.00000
     32      -3.2306      0.00000
     33      -2.9380      0.00000
     34      -2.9379      0.00000
     35       0.9367      0.00000
     36       1.5800      0.00000
     37       2.0196      0.00000
     38       2.5171      0.00000
     39       2.7095      0.00000
     40       2.9911      0.00000
     41       2.9971      0.00000
     42       4.0650      0.00000

 k-point     2 :       0.0263    0.0000    0.0000
  band No.  band energies     occupation 
      1     -19.9267      1.00000
      2     -19.0985      1.00000
      3     -19.0345      1.00000
      4     -19.0332      1.00000
      5     -18.8856      1.00000
      6     -18.8856      1.00000
      7      -9.6798      1.00000
      8      -9.1921      1.00000
      9      -8.7568      1.00000
     10      -8.7526      1.00000
     11      -8.6986      1.00000
     12      -8.6925      1.00000
     13      -8.3805      1.00000
     14      -8.3774      1.00000
     15      -8.2971      1.00000
     16      -7.5527      1.00000
     17      -7.5395      1.00000
     18      -7.5253      1.00000
     19      -6.7037      1.00000
     20      -6.4530      1.00000
     21      -6.3971      1.00000
     22      -6.3758      1.00000
     23      -6.1464      1.00000
     24      -6.1404      1.00000
     25      -5.5364      1.00000
     26      -5.1836      1.00000
     27      -5.1821      1.00000
     28      -5.0521      1.00000
     29      -4.9336      1.00000
     30      -4.9323      1.00000
     31      -3.2325      0.00000
     32      -3.2303      0.00000
     33      -2.9409      0.00000
     34      -2.9384      0.00000
     35       0.9433      0.00000
     36       1.5839      0.00000
     37       2.0237      0.00000
     38       2.5254      0.00000
     39       2.7143      0.00000
     40       2.9954      0.00000
     41       2.9967      0.00000
     42       4.0677      0.00000

 k-point     3 :       0.0526    0.0000    0.0000
  band No.  band energies     occupation 
      1     -19.9228      1.00000
      2     -19.0972      1.00000
      3     -19.0391      1.00000
      4     -19.0341      1.00000
      5     -18.8863      1.00000
      6     -18.8861      1.00000
      7      -9.6787      1.00000
      8      -9.1902      1.00000
      9      -8.7574      1.00000
     10      -8.7429      1.00000
     11      -8.7030      1.00000
     12      -8.6950      1.00000
     13      -8.3817      1.00000
     14      -8.3759      1.00000
     15      -8.3028      1.00000
     16      -7.5598      1.00000
     17      -7.5220      1.00000
     18      -7.5035      1.00000
     19      -6.7059      1.00000
     20      -6.4793      1.00000
     21      -6.4086      1.00000
     22      -6.3498      1.00000
     23      -6.1726      1.00000
     24      -6.1474      1.00000
     25      -5.5293      1.00000
     26      -5.1860      1.00000
     27      -5.1804      1.00000
     28      -5.0481      1.00000
     29      -4.9301      1.00000
     30      -4.9270      1.00000
     31      -3.2323      0.00000
     32      -3.2294      0.00000
     33      -2.9500      0.00000
     34      -2.9399      0.00000
     35       0.9629      0.00000
     36       1.5954      0.00000
     37       2.0359      0.00000
     38       2.5500      0.00000
     39       2.7287      0.00000
     40       2.9952      0.00000
     41       3.0082      0.00000
     42       4.0758      0.00000

 k-point     4 :       0.0789    0.0000    0.0000
  band No.  band energies     occupation 
      1     -19.9163      1.00000
      2     -19.0950      1.00000
      3     -19.0467      1.00000
      4     -19.0356      1.00000
      5     -18.8874      1.00000
      6     -18.8868      1.00000
      7      -9.6767      1.00000
      8      -9.1872      1.00000
      9      -8.7597      1.00000
     10      -8.7265      1.00000
     11      -8.7117      1.00000
     12      -8.6966      1.00000
     13      -8.3857      1.00000
     14      -8.3722      1.00000
     15      -8.3100      1.00000
     16      -7.5647      1.00000
     17      -7.4943      1.00000
     18      -7.4750      1.00000
     19      -6.7107      1.00000
     20      -6.5072      1.00000
     21      -6.4274      1.00000
     22      -6.3220      1.00000
     23      -6.2147      1.00000
     24      -6.1576      1.00000
     25      -5.5182      1.00000
     26      -5.1903      1.00000
     27      -5.1782      1.00000
     28      -5.0417      1.00000
     29      -4.9251      1.00000
     30      -4.9178      1.00000
     31      -3.2319      0.00000
     32      -3.2277      0.00000
     33      -2.9644      0.00000
     34      -2.9423      0.00000
     35       0.9952      0.00000
     36       1.6143      0.00000
     37       2.0563      0.00000
     38       2.5900      0.00000
     39       2.7527      0.00000
     40       2.9923      0.00000
     41       3.0299      0.00000
     42       4.0863      0.00000

 k-point     5 :       0.1053    0.0000    0.0000
  band No.  band energies     occupation 
      1     -19.9072      1.00000
      2     -19.0920      1.00000
      3     -19.0572      1.00000
      4     -19.0375      1.00000
      5     -18.8889      1.00000
      6     -18.8879      1.00000
      7      -9.6737      1.00000
      8      -9.1833      1.00000
      9      -8.7631      1.00000
     10      -8.7239      1.00000
     11      -8.7031      1.00000
     12      -8.6987      1.00000
     13      -8.3929      1.00000
     14      -8.3674      1.00000
     15      -8.3153      1.00000
     16      -7.5683      1.00000
     17      -7.4580      1.00000
     18      -7.4402      1.00000
     19      -6.7193      1.00000
     20      -6.5343      1.00000
     21      -6.4528      1.00000
     22      -6.2943      1.00000
     23      -6.2695      1.00000
     24      -6.1697      1.00000
     25      -5.5039      1.00000
     26      -5.1969      1.00000
     27      -5.1762      1.00000
     28      -5.0335      1.00000
     29      -4.9190      1.00000
     30      -4.9051      1.00000
     31      -3.2315      0.00000
     32      -3.2252      0.00000
     33      -2.9832      0.00000
     34      -2.9458      0.00000
     35       1.0395      0.00000
     36       1.6404      0.00000
     37       2.0848      0.00000
     38       2.6441      0.00000
     39       2.7859      0.00000
     40       2.9875      0.00000
     41       3.0609      0.00000
     42       4.0815      0.00000

 k-point     6 :       0.1316    0.0000    0.0000
  band No.  band energies     occupation 
      1     -19.8957      1.00000
      2     -19.0883      1.00000
      3     -19.0706      1.00000
      4     -19.0398      1.00000
      5     -18.8907      1.00000
      6     -18.8894      1.00000
      7      -9.6695      1.00000
      8      -9.1788      1.00000
      9      -8.7673      1.00000
     10      -8.7349      1.00000
     11      -8.7022      1.00000
     12      -8.6763      1.00000
     13      -8.4045      1.00000
     14      -8.3618      1.00000
     15      -8.3155      1.00000
     16      -7.5714      1.00000
     17      -7.4153      1.00000
     18      -7.4002      1.00000
     19      -6.7339      1.00000
     20      -6.5588      1.00000
     21      -6.4849      1.00000
     22      -6.3329      1.00000
     23      -6.2676      1.00000
     24      -6.1819      1.00000
     25      -5.4879      1.00000
     26      -5.2053      1.00000
     27      -5.1750      1.00000
     28      -5.0242      1.00000
     29      -4.9122      1.00000
     30      -4.8895      1.00000
     31      -3.2311      0.00000
     32      -3.2222      0.00000
     33      -3.0053      0.00000
     34      -2.9504      0.00000
     35       1.0950      0.00000
     36       1.6731      0.00000
     37       2.1212      0.00000
     38       2.7103      0.00000
     39       2.8281      0.00000
     40       2.9798      0.00000
     41       3.1020      0.00000
     42       4.0187      0.00000

 k-point     7 :       0.1579    0.0000    0.0000
  band No.  band energies     occupation 
      1     -19.8817      1.00000
      2     -19.0866      1.00000
      3     -19.0840      1.00000
      4     -19.0422      1.00000
      5     -18.8929      1.00000
      6     -18.8914      1.00000
      7      -9.6640      1.00000
      8      -9.1740      1.00000
      9      -8.7723      1.00000
     10      -8.7444      1.00000
     11      -8.7074      1.00000
     12      -8.6462      1.00000
     13      -8.4204      1.00000
     14      -8.3556      1.00000
     15      -8.3084      1.00000
     16      -7.5744      1.00000
     17      -7.3680      1.00000
     18      -7.3564      1.00000
     19      -6.7566      1.00000
     20      -6.5790      1.00000
     21      -6.5261      1.00000
     22      -6.3978      1.00000
     23      -6.2436      1.00000
     24      -6.1916      1.00000
     25      -5.4716      1.00000
     26      -5.2147      1.00000
     27      -5.1751      1.00000
     28      -5.0146      1.00000
     29      -4.9055      1.00000
     30      -4.8717      1.00000
     31      -3.2304      0.00000
     32      -3.2186      0.00000
     33      -3.0294      0.00000
     34      -2.9560      0.00000
     35       1.1607      0.00000
     36       1.7122      0.00000
     37       2.1657      0.00000
     38       2.7858      0.00000
     39       2.8785      0.00000
     40       2.9682      0.00000
     41       3.1543      0.00000
     42       3.9471      0.00000

 k-point     8 :       0.1842    0.0000    0.0000
  band No.  band energies     occupation 
      1     -19.8655      1.00000
      2     -19.1051      1.00000
      3     -19.0792      1.00000
      4     -19.0446      1.00000
      5     -18.8954      1.00000
      6     -18.8938      1.00000
      7      -9.6574      1.00000
      8      -9.1690      1.00000
      9      -8.7781      1.00000
     10      -8.7506      1.00000
     11      -8.7142      1.00000
     12      -8.6145      1.00000
     13      -8.4393      1.00000
     14      -8.3483      1.00000
     15      -8.2939      1.00000
     16      -7.5779      1.00000
     17      -7.3179      1.00000
     18      -7.3109      1.00000
     19      -6.7886      1.00000
     20      -6.5941      1.00000
     21      -6.5809      1.00000
     22      -6.4547      1.00000
     23      -6.2262      1.00000
     24      -6.1940      1.00000
     25      -5.4567      1.00000
     26      -5.2240      1.00000
     27      -5.1768      1.00000
     28      -5.0051      1.00000
     29      -4.8994      1.00000
     30      -4.8524      1.00000
     31      -3.2297      0.00000
     32      -3.2148      0.00000
     33      -3.0539      0.00000
     34      -2.9627      0.00000
     35       1.2357      0.00000
     36       1.7573      0.00000
     37       2.2179      0.00000
     38       2.8677      0.00000
     39       2.9313      0.00000
     40       2.9565      0.00000
     41       3.2189      0.00000
     42       3.8462      0.00000

 k-point     9 :       0.2105    0.0000    0.0000
  band No.  band energies     occupation 
      1     -19.8472      1.00000
      2     -19.1260      1.00000
      3     -19.0744      1.00000
      4     -19.0465      1.00000
      5     -18.8981      1.00000
      6     -18.8967      1.00000
      7      -9.6498      1.00000
      8      -9.1638      1.00000
      9      -8.7847      1.00000
     10      -8.7526      1.00000
     11      -8.7222      1.00000
     12      -8.5829      1.00000
     13      -8.4601      1.00000
     14      -8.3395      1.00000
     15      -8.2722      1.00000
     16      -7.5825      1.00000
     17      -7.2672      1.00000
     18      -7.2662      1.00000
     19      -6.8293      1.00000
     20      -6.6511      1.00000
     21      -6.6033      1.00000
     22      -6.4978      1.00000
     23      -6.2211      1.00000
     24      -6.1833      1.00000
     25      -5.4452      1.00000
     26      -5.2317      1.00000
     27      -5.1802      1.00000
     28      -4.9961      1.00000
     29      -4.8944      1.00000
     30      -4.8324      1.00000
     31      -3.2287      0.00000
     32      -3.2113      0.00000
     33      -3.0771      0.00000
     34      -2.9705      0.00000
     35       1.3189      0.00000
     36       1.8080      0.00000
     37       2.2778      0.00000
     38       2.9216      0.00000
     39       2.9527      0.00000
     40       3.0071      0.00000
     41       3.2968      0.00000
     42       3.7389      0.00000

 k-point    10 :       0.2368    0.0000    0.0000
  band No.  band energies     occupation 
      1     -19.8268      1.00000
      2     -19.1489      1.00000
      3     -19.0704      1.00000
      4     -19.0471      1.00000
      5     -18.9009      1.00000
      6     -18.9002      1.00000
      7      -9.6415      1.00000
      8      -9.1583      1.00000
      9      -8.7921      1.00000
     10      -8.7497      1.00000
     11      -8.7305      1.00000
     12      -8.5535      1.00000
     13      -8.4818      1.00000
     14      -8.3281      1.00000
     15      -8.2441      1.00000
     16      -7.5887      1.00000
     17      -7.2269      1.00000
     18      -7.2171      1.00000
     19      -6.8770      1.00000
     20      -6.7275      1.00000
     21      -6.6084      1.00000
     22      -6.5289      1.00000
     23      -6.2207      1.00000
     24      -6.1674      1.00000
     25      -5.4387      1.00000
     26      -5.2364      1.00000
     27      -5.1849      1.00000
     28      -4.9876      1.00000
     29      -4.8910      1.00000
     30      -4.8127      1.00000
     31      -3.2275      0.00000
     32      -3.2093      0.00000
     33      -3.0971      0.00000
     34      -2.9791      0.00000
     35       1.4094      0.00000
     36       1.8641      0.00000
     37       2.3453      0.00000
     38       2.8888      0.00000
     39       3.0384      0.00000
     40       3.0779      0.00000
     41       3.3879      0.00000
     42       3.6280      0.00000

 k-point    11 :       0.2632    0.0000    0.0000
  band No.  band energies     occupation 
      1     -19.8047      1.00000
      2     -19.1737      1.00000
      3     -19.0683      1.00000
      4     -19.0452      1.00000
      5     -18.9045      1.00000
      6     -18.9035      1.00000
      7      -9.6331      1.00000
      8      -9.1521      1.00000
      9      -8.8002      1.00000
     10      -8.7419      1.00000
     11      -8.7382      1.00000
     12      -8.5281      1.00000
     13      -8.5038      1.00000
     14      -8.3130      1.00000
     15      -8.2101      1.00000
     16      -7.5974      1.00000
     17      -7.1983      1.00000
     18      -7.1711      1.00000
     19      -6.9290      1.00000
     20      -6.7993      1.00000
     21      -6.6090      1.00000
     22      -6.5512      1.00000
     23      -6.2193      1.00000
     24      -6.1529      1.00000
     25      -5.4381      1.00000
     26      -5.2373      1.00000
     27      -5.1908      1.00000
     28      -4.9798      1.00000
     29      -4.8893      1.00000
     30      -4.7937      1.00000
     31      -3.2261      0.00000
     32      -3.2103      0.00000
     33      -3.1115      0.00000
     34      -2.9885      0.00000
     35       1.5063      0.00000
     36       1.9254      0.00000
     37       2.4202      0.00000
     38       2.8472      0.00000
     39       3.1237      0.00000
     40       3.1523      0.00000
     41       3.4851      0.00000
     42       3.5207      0.00000

 k-point    12 :       0.2895    0.0000    0.0000
  band No.  band energies     occupation 
      1     -19.7810      1.00000
      2     -19.1999      1.00000
      3     -19.0685      1.00000
      4     -19.0404      1.00000
      5     -18.9091      1.00000
      6     -18.9064      1.00000
      7      -9.6250      1.00000
      8      -9.1446      1.00000
      9      -8.8089      1.00000
     10      -8.7451      1.00000
     11      -8.7291      1.00000
     12      -8.5257      1.00000
     13      -8.5083      1.00000
     14      -8.2933      1.00000
     15      -8.1710      1.00000
     16      -7.6097      1.00000
     17      -7.1896      1.00000
     18      -7.1338      1.00000
     19      -6.9805      1.00000
     20      -6.8543      1.00000
     21      -6.6050      1.00000
     22      -6.5661      1.00000
     23      -6.2158      1.00000
     24      -6.1417      1.00000
     25      -5.4433      1.00000
     26      -5.2343      1.00000
     27      -5.1975      1.00000
     28      -4.9725      1.00000
     29      -4.8894      1.00000
     30      -4.7762      1.00000
     31      -3.2244      0.00000
     32      -3.2157      0.00000
     33      -3.1185      0.00000
     34      -2.9983      0.00000
     35       1.6090      0.00000
     36       1.9916      0.00000
     37       2.5023      0.00000
     38       2.7988      0.00000
     39       3.2083      0.00000
     40       3.2261      0.00000
     41       3.4015      0.00000
     42       3.6120      0.00000

 k-point    13 :       0.3158    0.0000    0.0000
  band No.  band energies     occupation 
      1     -19.7561      1.00000
      2     -19.2273      1.00000
      3     -19.0699      1.00000
      4     -19.0337      1.00000
      5     -18.9144      1.00000
      6     -18.9091      1.00000
      7      -9.6178      1.00000
      8      -9.1358      1.00000
      9      -8.8179      1.00000
     10      -8.7502      1.00000
     11      -8.7124      1.00000
     12      -8.5469      1.00000
     13      -8.4948      1.00000
     14      -8.2686      1.00000
     15      -8.1275      1.00000
     16      -7.6272      1.00000
     17      -7.2084      1.00000
     18      -7.1212      1.00000
     19      -7.0155      1.00000
     20      -6.8822      1.00000
     21      -6.5961      1.00000
     22      -6.5740      1.00000
     23      -6.2108      1.00000
     24      -6.1348      1.00000
     25      -5.4530      1.00000
     26      -5.2285      1.00000
     27      -5.2044      1.00000
     28      -4.9657      1.00000
     29      -4.8913      1.00000
     30      -4.7604      1.00000
     31      -3.2251      0.00000
     32      -3.2224      0.00000
     33      -3.1186      0.00000
     34      -3.0085      0.00000
     35       1.7168      0.00000
     36       2.0624      0.00000
     37       2.5913      0.00000
     38       2.7465      0.00000
     39       3.2813      0.00000
     40       3.2930      0.00000
     41       3.3091      0.00000
     42       3.5639      0.00000

 k-point    14 :       0.3421    0.0000    0.0000
  band No.  band energies     occupation 
      1     -19.7304      1.00000
      2     -19.2553      1.00000
      3     -19.0719      1.00000
      4     -19.0259      1.00000
      5     -18.9203      1.00000
      6     -18.9116      1.00000
      7      -9.6117      1.00000
      8      -9.1254      1.00000
      9      -8.8268      1.00000
     10      -8.7537      1.00000
     11      -8.6928      1.00000
     12      -8.5671      1.00000
     13      -8.4870      1.00000
     14      -8.2390      1.00000
     15      -8.0806      1.00000
     16      -7.6517      1.00000
     17      -7.2494      1.00000
     18      -7.1539      1.00000
     19      -7.0132      1.00000
     20      -6.8856      1.00000
     21      -6.5822      1.00000
     22      -6.5755      1.00000
     23      -6.2049      1.00000
     24      -6.1324      1.00000
     25      -5.4653      1.00000
     26      -5.2213      1.00000
     27      -5.2112      1.00000
     28      -4.9593      1.00000
     29      -4.8945      1.00000
     30      -4.7466      1.00000
     31      -3.2364      0.00000
     32      -3.2202      0.00000
     33      -3.1140      0.00000
     34      -3.0185      0.00000
     35       1.8294      0.00000
     36       2.1374      0.00000
     37       2.6785      0.00000
     38       2.7021      0.00000
     39       3.1947      0.00000
     40       3.3408      0.00000
     41       3.3730      0.00000
     42       3.4813      0.00000

 k-point    15 :       0.3684    0.0000    0.0000
  band No.  band energies     occupation 
      1     -19.7044      1.00000
      2     -19.2833      1.00000
      3     -19.0740      1.00000
      4     -19.0176      1.00000
      5     -18.9266      1.00000
      6     -18.9138      1.00000
      7      -9.6070      1.00000
      8      -9.1139      1.00000
      9      -8.8350      1.00000
     10      -8.7557      1.00000
     11      -8.6714      1.00000
     12      -8.5858      1.00000
     13      -8.4838      1.00000
     14      -8.2052      1.00000
     15      -8.0315      1.00000
     16      -7.6852      1.00000
     17      -7.2979      1.00000
     18      -7.2094      1.00000
     19      -6.9951      1.00000
     20      -6.8760      1.00000
     21      -6.5723      1.00000
     22      -6.5632      1.00000
     23      -6.1988      1.00000
     24      -6.1342      1.00000
     25      -5.4786      1.00000
     26      -5.2173      1.00000
     27      -5.2140      1.00000
     28      -4.9534      1.00000
     29      -4.8989      1.00000
     30      -4.7349      1.00000
     31      -3.2478      0.00000
     32      -3.2179      0.00000
     33      -3.1068      0.00000
     34      -3.0282      0.00000
     35       1.9464      0.00000
     36       2.2164      0.00000
     37       2.6402      0.00000
     38       2.7926      0.00000
     39       3.0995      0.00000
     40       3.3064      0.00000
     41       3.3314      0.00000
     42       3.4421      0.00000

 k-point    16 :       0.3947    0.0000    0.0000
  band No.  band energies     occupation 
      1     -19.6790      1.00000
      2     -19.3105      1.00000
      3     -19.0758      1.00000
      4     -19.0090      1.00000
      5     -18.9334      1.00000
      6     -18.9158      1.00000
      7      -9.6035      1.00000
      8      -9.1022      1.00000
      9      -8.8421      1.00000
     10      -8.7563      1.00000
     11      -8.6498      1.00000
     12      -8.6025      1.00000
     13      -8.4841      1.00000
     14      -8.1674      1.00000
[...]
     35       1.1104      0.00000
     36       1.6315      0.00000
     37       2.0698      0.00000
     38       2.7424      0.00000
     39       2.8905      0.00000
     40       3.1197      0.00000
     41       3.6433      0.00000
     42       4.1693      0.00000

 k-point    59 :       0.0175    0.0175    0.0000
  band No.  band energies     occupation 
      1     -19.9182      1.00000
      2     -19.1281      1.00000
      3     -19.0632      1.00000
      4     -19.0621      1.00000
      5     -18.9106      1.00000
      6     -18.9104      1.00000
      7      -9.4438      1.00000
      8      -8.9238      1.00000
      9      -8.5569      1.00000
     10      -8.5553      1.00000
     11      -8.4065      1.00000
     12      -8.3915      1.00000
     13      -8.2455      1.00000
     14      -7.8830      1.00000
     15      -7.8821      1.00000
     16      -7.3036      1.00000
     17      -7.1404      1.00000
     18      -7.1400      1.00000
     19      -6.6596      1.00000
     20      -6.4431      1.00000
     21      -6.2117      1.00000
     22      -6.2022      1.00000
     23      -6.0725      1.00000
     24      -6.0672      1.00000
     25      -2.5869      0.00000
     26      -2.5310      0.00000
     27      -2.5243      0.00000
     28      -2.4245      0.00000
     29      -2.2944      0.00000
     30      -2.2919      0.00000
     31      -1.4442      0.00000
     32      -1.4422      0.00000
     33      -1.2946      0.00000
     34      -1.2912      0.00000
     35       1.0866      0.00000
     36       1.6159      0.00000
     37       2.0537      0.00000
     38       2.7154      0.00000
     39       2.8698      0.00000
     40       3.0956      0.00000
     41       3.6499      0.00000
     42       4.1560      0.00000

 k-point    60 :       0.0000    0.0000    0.0000
  band No.  band energies     occupation 
      1     -19.9199      1.00000
      2     -19.1287      1.00000
      3     -19.0617      1.00000
      4     -19.0612      1.00000
      5     -18.9103      1.00000
      6     -18.9102      1.00000
      7      -9.4441      1.00000
      8      -8.9244      1.00000
      9      -8.5604      1.00000
     10      -8.5563      1.00000
     11      -8.3971      1.00000
     12      -8.3893      1.00000
     13      -8.2567      1.00000
     14      -7.8829      1.00000
     15      -7.8791      1.00000
     16      -7.3099      1.00000
     17      -7.1434      1.00000
     18      -7.1400      1.00000
     19      -6.6605      1.00000
     20      -6.4418      1.00000
     21      -6.2096      1.00000
     22      -6.2041      1.00000
     23      -6.0652      1.00000
     24      -6.0626      1.00000
     25      -2.5807      0.00000
     26      -2.5325      0.00000
     27      -2.5322      0.00000
     28      -2.4230      0.00000
     29      -2.2937      0.00000
     30      -2.2928      0.00000
     31      -1.4442      0.00000
     32      -1.4424      0.00000
     33      -1.2912      0.00000
     34      -1.2907      0.00000
     35       1.0786      0.00000
     36       1.6107      0.00000
     37       2.0484      0.00000
     38       2.7061      0.00000
     39       2.8629      0.00000
     40       3.0876      0.00000
     41       3.6521      0.00000
     42       4.1514      0.00000


--------------------------------------------------------------------------------------------------------


 soft charge-density along one line, spin component           1
         0         1         2         3         4         5         6         7         8         9
 total charge-density along one line
 
 soft charge-density along one line, spin component           2
         0         1         2         3         4         5         6         7         8         9
 total charge-density along one line
 
 pseudopotential strength for first ion, spin component:           1
 -9.973  -0.075   0.000  -0.000   0.000 -10.291  -0.074   0.000
 -0.075  -9.923  -0.000   0.000  -0.000  -0.074 -10.241  -0.000
  0.000  -0.000 -10.028  -0.000  -0.000   0.000  -0.000 -10.346
 -0.000   0.000  -0.000  -9.923   0.075  -0.000   0.000  -0.000
  0.000  -0.000  -0.000   0.075  -9.973   0.000  -0.000  -0.000
-10.291  -0.074   0.000  -0.000   0.000 -10.572  -0.074   0.000
 -0.074 -10.241  -0.000   0.000  -0.000  -0.074 -10.523  -0.000
  0.000  -0.000 -10.346  -0.000  -0.000   0.000  -0.000 -10.626
 -0.000   0.000  -0.000 -10.241   0.074  -0.000   0.000  -0.000
  0.000  -0.000  -0.000   0.074 -10.291   0.000  -0.000  -0.000
  0.000   0.000   0.000   0.000   0.000   0.000   0.000   0.000
  0.000   0.000   0.000   0.000   0.000   0.000   0.000   0.000
 -0.000   0.000  -0.000  -0.000  -0.000  -0.000   0.000  -0.000
 -0.000   0.000   0.000  -0.000  -0.000  -0.000   0.000   0.000
  0.000  -0.000   0.000   0.000  -0.000   0.000  -0.000   0.000
 -0.000   0.000  -0.000  -0.000  -0.000  -0.000   0.000  -0.000
 -0.000   0.000   0.000  -0.000  -0.000  -0.000   0.000   0.000
  0.000  -0.000   0.000   0.000  -0.000   0.000  -0.000   0.000
 pseudopotential strength for first ion, spin component:           2
 -8.307   0.095  -0.000  -0.000  -0.000  -8.680   0.094  -0.000
  0.095  -8.368   0.000  -0.000   0.000   0.094  -8.740   0.000
 -0.000   0.000  -8.231   0.000   0.000  -0.000   0.000  -8.605
 -0.000  -0.000   0.000  -8.368  -0.095  -0.000  -0.000   0.000
 -0.000   0.000   0.000  -0.095  -8.307  -0.000   0.000   0.000
 -8.680   0.094  -0.000  -0.000  -0.000  -9.015   0.093  -0.000
  0.094  -8.740   0.000  -0.000   0.000   0.093  -9.075   0.000
 -0.000   0.000  -8.605   0.000   0.000  -0.000   0.000  -8.940
 -0.000  -0.000   0.000  -8.740  -0.094  -0.000  -0.000   0.000
 -0.000   0.000   0.000  -0.094  -8.680  -0.000   0.000   0.000
  0.000   0.000  -0.002  -0.000  -0.000   0.000   0.000  -0.002
  0.000   0.000  -0.003  -0.000  -0.000   0.000   0.000  -0.003
 -0.000   0.000  -0.000   0.000  -0.000  -0.000   0.000  -0.000
  0.000   0.000   0.000  -0.000  -0.000   0.000   0.000   0.000
 -0.000   0.000   0.000   0.000  -0.000  -0.000   0.000   0.000
 -0.000   0.000  -0.000   0.000  -0.000  -0.000   0.000  -0.000
  0.000   0.000   0.000  -0.000  -0.000   0.000   0.000   0.000
 -0.000   0.000   0.000   0.000  -0.000  -0.000   0.000   0.000
 total augmentation occupancy for first ion, spin component:           1
  1.000   0.000   0.000   0.000   0.000   0.000   0.000   0.000   0.000   0.000   0.000   0.000   0.000   0.000   0.000   0.000
  0.000   1.000   0.000   0.000   0.000   0.000   0.000   0.000   0.000   0.000   0.000   0.000   0.000   0.000   0.000   0.000
  0.000   0.000   1.000   0.000   0.000   0.000   0.000   0.000   0.000   0.000   0.000   0.000   0.000   0.000   0.000   0.000
  0.000   0.000   0.000   1.000   0.000   0.000   0.000   0.000   0.000   0.000   0.000   0.000   0.000   0.000   0.000   0.000
  0.000   0.000   0.000   0.000   1.000   0.000   0.000   0.000   0.000   0.000   0.000   0.000   0.000   0.000   0.000   0.000
  0.000   0.000   0.000   0.000   0.000   0.000   0.000   0.000   0.000   0.000   0.000   0.000   0.000   0.000   0.000   0.000
  0.000   0.000   0.000   0.000   0.000   0.000   0.000   0.000   0.000   0.000   0.000   0.000   0.000   0.000   0.000   0.000
  0.000   0.000   0.000   0.000   0.000   0.000   0.000   0.000   0.000   0.000   0.000   0.000   0.000   0.000   0.000   0.000
  0.000   0.000   0.000   0.000   0.000   0.000   0.000   0.000   0.000   0.000   0.000   0.000   0.000   0.000   0.000   0.000
  0.000   0.000   0.000   0.000   0.000   0.000   0.000   0.000   0.000   0.000   0.000   0.000   0.000   0.000   0.000   0.000
  0.000   0.000   0.000   0.000   0.000   0.000   0.000   0.000   0.000   0.000   1.000   0.000   0.000   0.000   0.000   0.000
  0.000   0.000   0.000   0.000   0.000   0.000   0.000   0.000   0.000   0.000   0.000   0.000   0.000   0.000   0.000   0.000
  0.000   0.000   0.000   0.000   0.000   0.000   0.000   0.000   0.000   0.000   0.000   0.000   0.000   0.000   0.000   0.000
  0.000   0.000   0.000   0.000   0.000   0.000   0.000   0.000   0.000   0.000   0.000   0.000   0.000   0.000   0.000   0.000
  0.000   0.000   0.000   0.000   0.000   0.000   0.000   0.000   0.000   0.000   0.000   0.000   0.000   0.000   0.000   0.000
  0.000   0.000   0.000   0.000   0.000   0.000   0.000   0.000   0.000   0.000   0.000   0.000   0.000   0.000   0.000   0.000
  0.000   0.000   0.000   0.000   0.000   0.000   0.000   0.000   0.000   0.000   0.000   0.000   0.000   0.000   0.000   0.000
  0.000   0.000   0.000   0.000   0.000   0.000   0.000   0.000   0.000   0.000   0.000   0.000   0.000   0.000   0.000   0.000
 total augmentation occupancy for first ion, spin component:           2
  0.500   0.000   0.000   0.000   0.000   0.000   0.000   0.000   0.000   0.000   0.000   0.000   0.000   0.000   0.000   0.000
  0.000   0.500   0.000   0.000   0.000   0.000   0.000   0.000   0.000   0.000   0.000   0.000   0.000   0.000   0.000   0.000
  0.000   0.000   0.500   0.000   0.000   0.000   0.000   0.000   0.000   0.000   0.000   0.000   0.000   0.000   0.000   0.000
  0.000   0.000   0.000   0.500   0.000   0.000   0.000   0.000   0.000   0.000   0.000   0.000   0.000   0.000   0.000   0.000
  0.000   0.000   0.000   0.000   0.500   0.000   0.000   0.000   0.000   0.000   0.000   0.000   0.000   0.000   0.000   0.000
  0.000   0.000   0.000   0.000   0.000   0.000   0.000   0.000   0.000   0.000   0.000   0.000   0.000   0.000   0.000   0.000
  0.000   0.000   0.000   0.000   0.000   0.000   0.000   0.000   0.000   0.000   0.000   0.000   0.000   0.000   0.000   0.000
  0.000   0.000   0.000   0.000   0.000   0.000   0.000   0.000   0.000   0.000   0.000   0.000   0.000   0.000   0.000   0.000
  0.000   0.000   0.000   0.000   0.000   0.000   0.000   0.000   0.000   0.000   0.000   0.000   0.000   0.000   0.000   0.000
  0.000   0.000   0.000   0.000   0.000   0.000   0.000   0.000   0.000   0.000   0.000   0.000   0.000   0.000   0.000   0.000
  0.000   0.000   0.000   0.000   0.000   0.000   0.000   0.000   0.000   0.000   0.500   0.000   0.000   0.000   0.000   0.000
  0.000   0.000   0.000   0.000   0.000   0.000   0.000   0.000   0.000   0.000   0.000   0.000   0.000   0.000   0.000   0.000
  0.000   0.000   0.000   0.000   0.000   0.000   0.000   0.000   0.000   0.000   0.000   0.000   0.000   0.000   0.000   0.000
  0.000   0.000   0.000   0.000   0.000   0.000   0.000   0.000   0.000   0.000   0.000   0.000   0.000   0.000   0.000   0.000
  0.000   0.000   0.000   0.000   0.000   0.000   0.000   0.000   0.000   0.000   0.000   0.000   0.000   0.000   0.000   0.000
  0.000   0.000   0.000   0.000   0.000   0.000   0.000   0.000   0.000   0.000   0.000   0.000   0.000   0.000   0.000   0.000
  0.000   0.000   0.000   0.000   0.000   0.000   0.000   0.000   0.000   0.000   0.000   0.000   0.000   0.000   0.000   0.000
  0.000   0.000   0.000   0.000   0.000   0.000   0.000   0.000   0.000   0.000   0.000   0.000   0.000   0.000   0.000   0.000


------------------------ aborting loop because EDIFF is reached ----------------------------------------





 total charge

# of ion       s       p       d       tot
------------------------------------------
    1        0.344   0.505   4.153   5.002
    2        0.344   0.505   4.153   5.002
    3        1.604   3.502   0.000   5.107
    4        1.603   3.504   0.000   5.107
    5        1.603   3.504   0.000   5.108
    6        1.603   3.504   0.000   5.107
    7        1.604   3.502   0.000   5.106
    8        1.603   3.504   0.000   5.108
--------------------------------------------------
tot         10.310  22.031   8.306  40.647



 magnetization (x)

# of ion       s       p       d       tot
------------------------------------------
    1        0.031   0.038   2.905   2.975
    2        0.031   0.038   2.905   2.975
    3       -0.001  -0.041   0.000  -0.042
    4       -0.000  -0.043   0.000  -0.043
    5       -0.000  -0.042   0.000  -0.043
    6       -0.000  -0.043   0.000  -0.043
    7       -0.001  -0.041   0.000  -0.042
    8       -0.000  -0.042   0.000  -0.043
--------------------------------------------------
tot          0.059  -0.175   5.811   5.695
 
    CHARGE:  cpu time      0.8945: real time      0.8946
    FORLOC:  cpu time      0.0017: real time      0.0017
    FORNL :  cpu time      1.5818: real time      1.5819
    STRESS:  cpu time     26.9761: real time     26.9837
    FORCOR:  cpu time      0.0670: real time      0.0670
    FORHAR:  cpu time      0.0075: real time      0.0075
    OFIELD:  cpu time      0.0008: real time      0.0008

  FORCE on cell =-STRESS in cart. coord.  units (eV):
  Direction    XX          YY          ZZ          XY          YZ          ZX
  --------------------------------------------------------------------------------------
  Alpha Z    23.01523    23.01523    23.01523
  Ewald    9327.73960  9328.27386-10982.94561     0.44962     3.92379     2.13125
  Hartree  9931.42933  9931.87099 -9529.31127     0.24544     3.89760     1.95407
  E(xc)    -209.11788  -209.12339  -209.37638     0.01095    -0.01467     0.00550
  Local  -20281.12496-20282.49997 19485.77882    -0.02045    -8.13898    -3.96845
  n-local   475.83297   476.04877   474.65201    -0.34914    -0.06345     0.00272
  augment   -58.85965   -58.80648   -58.96601    -0.07266    -0.00406     0.01218
  Kinetic   788.76330   788.58679   796.05483     0.18535     0.15856    -0.06349
  Fock        0.00000     0.00000     0.00000     0.00000     0.00000     0.00000
  -------------------------------------------------------------------------------------
  Total      -2.32207    -2.63420    -1.09837     0.44911    -0.24120     0.07378
  in kB      -4.97387    -5.64246    -2.35271     0.96200    -0.51666     0.15803
  external pressure =       -4.32 kB  Pullay stress =        0.00 kB


 VOLUME and BASIS-vectors are now :
 -----------------------------------------------------------------------------
  energy-cutoff  :      400.00
  volume of cell :      747.98
      direct lattice vectors                 reciprocal lattice vectors
     6.154088000 -0.002745000  0.000611000     0.162535521  0.093943719 -0.000034071
    -3.079421000  5.327821000  0.000675000     0.000083745  0.187742402 -0.000035214
     0.002310000  0.004279000 22.818631000    -0.000004355 -0.000008069  0.043823840

  length of vectors
     6.154088643  6.153739575 22.818631518     0.187731774  0.187742424  0.043823841


 FORCES acting on ions
    electron-ion (+dipol)            ewald-force                    non-local-force                 convergence-correction
 -----------------------------------------------------------------------------------------------
   -.257E+00 0.101E+00 0.495E-02   0.191E+00 -.121E+00 -.113E-02   0.230E-01 0.360E-02 0.314E-03   0.346E-01 0.584E-02 -.562E-02
   0.252E+00 -.975E-01 -.220E-02   -.186E+00 0.118E+00 0.588E-02   -.234E-01 -.328E-02 0.271E-02   -.328E-01 -.705E-02 -.669E-02
   -.364E+02 0.629E+02 -.482E+03   0.373E+02 -.646E+02 0.485E+03   -.998E+00 0.176E+01 -.307E+01   0.375E-01 -.260E-01 -.224E-01
   -.361E+02 -.629E+02 -.481E+03   0.373E+02 0.646E+02 0.484E+03   -.103E+01 -.174E+01 -.287E+01   -.735E-01 0.103E-01 0.138E-01
   0.726E+02 -.223E+00 -.482E+03   -.746E+02 0.306E-01 0.485E+03   0.200E+01 0.367E-01 -.291E+01   0.162E-01 0.884E-01 0.225E-02
   0.361E+02 0.629E+02 0.481E+03   -.373E+02 -.646E+02 -.484E+03   0.102E+01 0.174E+01 0.287E+01   0.729E-01 -.951E-02 -.169E-01
   0.364E+02 -.629E+02 0.482E+03   -.373E+02 0.646E+02 -.485E+03   0.998E+00 -.176E+01 0.307E+01   -.376E-01 0.243E-01 0.177E-01
   -.726E+02 0.219E+00 0.482E+03   0.746E+02 -.268E-01 -.485E+03   -.200E+01 -.366E-01 0.291E+01   -.150E-01 -.879E-01 -.471E-02
 -----------------------------------------------------------------------------------------------
   -.198E-02 0.175E-02 0.164E-01   -.142E-13 0.731E-14 0.227E-12   -.627E-04 -.172E-03 0.562E-02   0.218E-02 -.169E-02 -.225E-01
 
 
 POSITION                                       TOTAL-FORCE (eV/Angst)
 -----------------------------------------------------------------------------------
      3.07754      1.77613     11.40996        -0.008943     -0.010361     -0.001417
      6.15511     -0.00049     11.40994         0.009085      0.010256     -0.000250
      1.96177      0.15636     12.73298        -0.043663      0.052271     -0.033351
      5.04091      1.62328     12.73015         0.041913     -0.038529     -0.027034
      2.23078      3.55119     12.73376         0.015945     -0.067325     -0.027253
      4.19176      0.15234     10.08970        -0.041971      0.038731      0.027583
      1.11679      1.62205     10.08626         0.043670     -0.052502      0.033941
      3.92244      3.55225     10.08677        -0.016035      0.067459      0.027781
 -----------------------------------------------------------------------------------
    total drift:                                0.000139     -0.000105     -0.000482


--------------------------------------------------------------------------------------------------------



  FREE ENERGIE OF THE ION-ELECTRON SYSTEM (eV)
  ---------------------------------------------------
  free  energy   TOTEN  =       -38.73764708 eV

  energy  without entropy=      -38.73764708  energy(sigma->0) =      -38.73764708
 


--------------------------------------------------------------------------------------------------------


    POTLOK:  cpu time      0.0862: real time      0.0862


--------------------------------------------------------------------------------------------------------


     LOOP+:  cpu time    243.2895: real time    243.3640
    4ORBIT:  cpu time      0.0000: real time      0.0000



 total charge

# of ion       s       p       d       tot
------------------------------------------
    1        0.344   0.505   4.153   5.002
    2        0.344   0.505   4.153   5.002
    3        1.604   3.502   0.000   5.107
    4        1.603   3.504   0.000   5.107
    5        1.603   3.504   0.000   5.108
    6        1.603   3.504   0.000   5.107
    7        1.604   3.502   0.000   5.106
    8        1.603   3.504   0.000   5.108
--------------------------------------------------
tot         10.310  22.031   8.306  40.647



 magnetization (x)

# of ion       s       p       d       tot
------------------------------------------
    1        0.031   0.038   2.905   2.975
    2        0.031   0.038   2.905   2.975
    3       -0.001  -0.041   0.000  -0.042
    4       -0.000  -0.043   0.000  -0.043
    5       -0.000  -0.042   0.000  -0.043
    6       -0.000  -0.043   0.000  -0.043
    7       -0.001  -0.041   0.000  -0.042
    8       -0.000  -0.042   0.000  -0.043
--------------------------------------------------
tot          0.059  -0.175   5.811   5.695
 

 total amount of memory used by VASP MPI-rank0   305753. kBytes
=======================================================================

   base                                    :      30000. kBytes
   nonl-proj                               :     237619. kBytes
   fftplans                                :       1259. kBytes
   grid                                    :      10258. kBytes
   one-center                              :        248. kBytes
   wavefun                                 :      26369. kBytes
 
  
  
 General timing and accounting informations for this job:
 ========================================================
  
                  Total CPU time used (sec):      251.611
                            User time (sec):      249.726
                          System time (sec):        1.885
                         Elapsed time (sec):      251.925
  
                   Maximum memory used (kb):      425856.
                   Average memory used (kb):          N/A
  
                          Minor page faults:        72581
                          Major page faults:         8527
                 Voluntary context switches:           78
