 vasp.6.5.1 10Mar25 (build Apr 08 2025 20:07:02) complex                        
  
 executed on             LinuxIFC date 2025.06.10  22:16:33
 running   42 mpi-ranks, on    1 nodes
 distrk:  each k-point on   42 cores,    1 groups
 distr:  one band on NCORE=   1 cores,   42 groups


--------------------------------------------------------------------------------------------------------


 INCAR:
   SYSTEM = CrCl3 KPOINT Test
   PREC = Accurate
   ISMEAR = 0
   SIGMA = 0.05
   ENCUT = 520
   ISPIN = 2
   MAGMOM = 2*3.0 6*0.6
   EDIFF = 1E-6
   IBRION = -1
   NSW = 0
   LWAVE = .FALSE.
   LCHARG = .FALSE.

 POTCAR:    PAW_PBE Cr 06Sep2000                  
 POTCAR:    PAW_PBE Cl 06Sep2000                  
 -----------------------------------------------------------------------------
|                                                                             |
|           W    W    AA    RRRRR   N    N  II  N    N   GGGG   !!!           |
|           W    W   A  A   R    R  NN   N  II  NN   N  G    G  !!!           |
|           W    W  A    A  R    R  N N  N  II  N N  N  G       !!!           |
|           W WW W  AAAAAA  RRRRR   N  N N  II  N  N N  G  GGG   !            |
|           WW  WW  A    A  R   R   N   NN  II  N   NN  G    G                |
|           W    W  A    A  R    R  N    N  II  N    N   GGGG   !!!           |
|                                                                             |
|     For optimal performance we recommend to set                             |
|       NCORE = 2 up to number-of-cores-per-socket                            |
|     NCORE specifies how many cores store one orbital (NPAR=cpu/NCORE).      |
|     This setting can greatly improve the performance of VASP for DFT.       |
|     The default, NCORE=1 might be grossly inefficient on modern             |
|     multi-core architectures or massively parallel machines. Do your        |
|     own testing! More info at https://www.vasp.at/wiki/index.php/NCORE      |
|     Unfortunately you need to use the default for GW and RPA                |
|     calculations (for HF NCORE is supported but not extensively tested      |
|     yet).                                                                   |
|                                                                             |
 -----------------------------------------------------------------------------

 POTCAR:    PAW_PBE Cr 06Sep2000                  
   SHA256 =  56e7271fac8042f322b235801e26979132a24da65eb043fa6a03029023cb2fcc Cr/POTCAR             
   COPYR  = (c) Copyright 06Sep2000 Georg Kresse                                                    
   COPYR  = This file is part of the software VASP. Any use, copying, and all other rights are regul
   COPYR  = If you do not have a valid VASP license, you may not use, copy or distribute this file. 
   VRHFIN =Cr : d5 s1                                                                               
   LEXCH  = PE                                                                                      
   EATOM  =   276.8859 eV,   20.3505 Ry                                                             
                                                                                                    
   TITEL  = PAW_PBE Cr 06Sep2000                                                                    
   LULTRA =        F    use ultrasoft PP ?                                                          
   IUNSCR =        1    unscreen: 0-lin 1-nonlin 2-no                                               
   RPACOR =    2.080    partial core radius                                                         
   POMASS =   51.996; ZVAL   =    6.000    mass and valenz                                          
   RCORE  =    2.500    outmost cutoff radius                                                       
   RWIGS  =    2.500; RWIGS  =    1.323    wigner-seitz radius (au A)                               
   ENMAX  =  227.080; ENMIN  =  170.310 eV                                                          
   RCLOC  =    1.721    cutoff for local pot                                                        
   LCOR   =        T    correct aug charges                                                         
   LPAW   =        T    paw PP                                                                      
   EAUG   =  402.108                                                                                
   DEXC   =    0.000                                                                                
   RMAX   =    2.552    core radius for proj-oper                                                   
   RAUG   =    1.300    factor for augmentation sphere                                              
   RDEP   =    2.609    radius for radial grids                                                     
   RDEPT  =    2.065    core radius for aug-charge                                                  
                                                                                                    
   Atomic configuration                                                                             
    9 entries                                                                                       
     n  l   j            E        occ.                                                              
     1  0  0.50     -5880.4963   2.0000                                                             
     2  0  0.50      -667.0865   2.0000                                                             
     2  1  1.50      -560.6250   6.0000                                                             
     3  0  0.50       -73.9860   2.0000                                                             
     3  1  1.50       -45.4378   6.0000                                                             
     3  2  2.50        -2.9137   5.0000                                                             
     4  0  0.50        -4.0071   1.0000                                                             
     4  1  0.50        -1.2789   0.0000                                                             
     4  3  2.50        -1.3606   0.0000                                                             
   Description                                                                                      
     l       E           TYP  RCUT    TYP  RCUT                                                     
     2     -2.9136677     23  2.500                                                                 
     2     -4.2742503     23  2.500                                                                 
     0     -4.0071322     23  2.500                                                                 
     0      9.4498801     23  2.500                                                                 
     1     -5.4423304     23  2.500                                                                 
     1     27.2116520     23  2.500                                                                 
  local pseudopotential read in
  partial core-charges read in
  partial kinetic energy density read in
  atomic valenz-charges read in
  non local Contribution for L=           2  read in
    real space projection operators read in
  non local Contribution for L=           2  read in
    real space projection operators read in
  non local Contribution for L=           0  read in
    real space projection operators read in
  non local Contribution for L=           0  read in
    real space projection operators read in
  non local Contribution for L=           1  read in
    real space projection operators read in
  non local Contribution for L=           1  read in
    real space projection operators read in
    PAW grid and wavefunctions read in
 
   number of l-projection  operators is LMAX  =           6
   number of lm-projection operators is LMMAX =          18
 
 POTCAR:    PAW_PBE Cl 06Sep2000                  
   SHA256 =  9f1b6e6ed4247ac726a768b330d26d7667cc3c95a39ff49c1d064c2d9dcce931 Cl/POTCAR             
   COPYR  = (c) Copyright 06Sep2000 Georg Kresse                                                    
   COPYR  = This file is part of the software VASP. Any use, copying, and all other rights are regul
   COPYR  = If you do not have a valid VASP license, you may not use, copy or distribute this file. 
   VRHFIN =Cl: s2p5                                                                                 
   LEXCH  = PE                                                                                      
   EATOM  =   409.7259 eV,   30.1140 Ry                                                             
                                                                                                    
   TITEL  = PAW_PBE Cl 06Sep2000                                                                    
   LULTRA =        F    use ultrasoft PP ?                                                          
   IUNSCR =        1    unscreen: 0-lin 1-nonlin 2-no                                               
   RPACOR =    1.500    partial core radius                                                         
   POMASS =   35.453; ZVAL   =    7.000    mass and valenz                                          
   RCORE  =    1.900    outmost cutoff radius                                                       
   RWIGS  =    2.100; RWIGS  =    1.111    wigner-seitz radius (au A)                               
   ENMAX  =  262.472; ENMIN  =  196.854 eV                                                          
   ICORE  =        2    local potential                                                             
   LCOR   =        T    correct aug charges                                                         
   LPAW   =        T    paw PP                                                                      
   EAUG   =  356.192                                                                                
   DEXC   =    0.000                                                                                
   RMAX   =    1.945    core radius for proj-oper                                                   
   RAUG   =    1.300    factor for augmentation sphere                                              
   RDEP   =    2.020    radius for radial grids                                                     
   RDEPT  =    1.678    core radius for aug-charge                                                  
                                                                                                    
   Atomic configuration                                                                             
    6 entries                                                                                       
     n  l   j            E        occ.                                                              
     1  0  0.50     -2751.1850   2.0000                                                             
     2  0  0.50      -252.6861   2.0000                                                             
     2  1  1.50      -191.6157   6.0000                                                             
     3  0  0.50       -20.6916   2.0000                                                             
     3  1  0.50        -8.5949   5.0000                                                             
     3  2  1.50        -8.1635   0.0000                                                             
   Description                                                                                      
     l       E           TYP  RCUT    TYP  RCUT                                                     
     0    -20.6915656     23  1.900                                                                 
     0    -22.0521482     23  1.900                                                                 
     1     -8.5948577     23  1.900                                                                 
     1     -5.3847331     23  1.900                                                                 
     2     -8.1634956     23  1.900                                                                 
  local pseudopotential read in
  partial core-charges read in
  partial kinetic energy density read in
  atomic valenz-charges read in
  non local Contribution for L=           0  read in
    real space projection operators read in
  non local Contribution for L=           0  read in
    real space projection operators read in
  non local Contribution for L=           1  read in
    real space projection operators read in
  non local Contribution for L=           1  read in
    real space projection operators read in
    PAW grid and wavefunctions read in
 
   number of l-projection  operators is LMAX  =           4
   number of lm-projection operators is LMMAX =           8
 
  PAW_PBE Cr 06Sep2000                  :
 energy of atom  1       EATOM= -276.8859
 kinetic energy error for atom=    0.0010 (will be added to EATOM!!)
  PAW_PBE Cl 06Sep2000                  :
 energy of atom  2       EATOM= -409.7259
 kinetic energy error for atom=    0.0023 (will be added to EATOM!!)
 
 
 POSCAR: 
 -----------------------------------------------------------------------------
|                                                                             |
|           W    W    AA    RRRRR   N    N  II  N    N   GGGG   !!!           |
|           W    W   A  A   R    R  NN   N  II  NN   N  G    G  !!!           |
|           W    W  A    A  R    R  N N  N  II  N N  N  G       !!!           |
|           W WW W  AAAAAA  RRRRR   N  N N  II  N  N N  G  GGG   !            |
|           WW  WW  A    A  R   R   N   NN  II  N   NN  G    G                |
|           W    W  A    A  R    R  N    N  II  N    N   GGGG   !!!           |
|                                                                             |
|     Inconsistent Bravais lattice types found for crystalline and            |
|     reciprocal lattice:                                                     |
|                                                                             |
|        Crystalline: base-centered monoclinic                                |
|        Reciprocal : triclinic                                               |
|                    (instead of base-centered monoclinic)                    |
|                                                                             |
|     In most cases this is due to inaccuracies in the specification of       |
|     the crytalline lattice vectors.                                         |
|                                                                             |
|     Suggested SOLUTIONS:                                                    |
|      ) Refine the lattice parameters of your structure,                     |
|      ) and/or try changing SYMPREC.                                         |
|                                                                             |
 -----------------------------------------------------------------------------

  positions in cartesian coordinates
  No initial velocities read in


 exchange-correlation table for PE
   RHO(1)=    0.500       N(1)  =     2000
   RHO(2)=  100.500       N(2)  =     4000
 


--------------------------------------------------------------------------------------------------------


 ion  position               nearest neighbor table
   1  0.667  0.333  0.500-   4 2.40   6 2.41   8 2.41   3 2.41   5 2.41   7 2.41
   2  1.000  0.000  0.500-   6 2.40   4 2.41   7 2.41   8 2.41   5 2.41   3 2.41
   3  0.333  0.024  0.560-   1 2.41   2 2.41
   4  0.976  0.309  0.560-   1 2.40   2 2.41
   5  0.691  0.666  0.560-   2 2.41   1 2.41
   6  0.691  0.024  0.440-   2 2.40   1 2.41
   7  0.334  0.309  0.440-   2 2.41   1 2.41
   8  0.976  0.667  0.440-   2 2.41   1 2.41
 
  LATTYP: Found a base centered monoclinic cell.
 ALAT       =    46.0522173584
 B/A-ratio  =     0.2315140720
 C/A-ratio  =     0.4954947411
 COS(beta)  =    -0.9910458493
  
  Lattice vectors:
  
 A1 = (  -6.1563980000,  -0.0015340000, -22.8192420000)
 A2 = (   3.0771110000,  -5.3321000000, -22.8193060000)
 A3 = (   0.0023100000,   0.0042790000,  22.8186310000)


Analysis of symmetry for initial positions (statically):
=====================================================================
 Subroutine PRICEL returns:
 Original cell was already a primitive cell.
 

 Routine SETGRP: Setting up the symmetry group for a 
 base centered monoclinic supercell.


 Subroutine GETGRP returns: Found  1 space group operations
 (whereof  1 operations were pure point group operations)
 out of a pool of  4 trial point group operations.


The static configuration has the point symmetry C_1 .


Analysis of symmetry for dynamics (positions and initial velocities):
=====================================================================
 Subroutine PRICEL returns:
 Original cell was already a primitive cell.
 

 Routine SETGRP: Setting up the symmetry group for a 
 base centered monoclinic supercell.


 Subroutine GETGRP returns: Found  1 space group operations
 (whereof  1 operations were pure point group operations)
 out of a pool of  4 trial point group operations.


The dynamic configuration has the point symmetry C_1 .


Analysis of structural, dynamic, and magnetic symmetry:
=====================================================================
 Subroutine PRICEL returns:
 Original cell was already a primitive cell.
 

 Routine SETGRP: Setting up the symmetry group for a 
 base centered monoclinic supercell.


 Subroutine GETGRP returns: Found  1 space group operations
 (whereof  1 operations were pure point group operations)
 out of a pool of  4 trial point group operations.


The overall configuration has the point symmetry C_1 .


 Subroutine INISYM returns: Found  1 space group operations
 (whereof  1 operations are pure point group operations),
 and found     1 'primitive' translations


----------------------------------------------------------------------------------------

                                     Primitive cell                                     

  volume of cell :     747.9816

  direct lattice vectors                    reciprocal lattice vectors
     6.154088000 -0.002745000  0.000611000     0.162535521  0.093943719 -0.000034071
    -3.079421000  5.327821000  0.000675000     0.000083745  0.187742402 -0.000035214
     0.002310000  0.004279000 22.818631000    -0.000004355 -0.000008069  0.043823840

  length of vectors
     6.154088643  6.153739575 22.818631518     0.187731774  0.187742424  0.043823841

  position of ions in fractional coordinates (direct lattice)
     0.666736594  0.333271515  0.500001034
     0.999932001  0.000057150  0.499996780
     0.333036773  0.024315239  0.559914124
     0.976157585  0.309498728  0.559709996
     0.691010203  0.666388278  0.559921327
     0.690524329  0.023819428  0.440290280
     0.333612637  0.309016604  0.440085142
     0.975657232  0.666961176  0.440079793

  ion indices of the primitive-cell ions
   primitive index   ion index
                 1           1
                 2           2
                 3           3
                 4           4
                 5           5
                 6           6
                 7           7
                 8           8

----------------------------------------------------------------------------------------

 
 
 KPOINTS: Automatic mesh                          

Automatic generation of k-mesh.
 Grid dimensions read from file:
 generate k-points for:    8    8    6

 Generating k-lattice:

  Cartesian coordinates                     Fractional coordinates (reciprocal lattice)
     0.020316940  0.011742965 -0.000004259     0.125000000 -0.000000000 -0.000000000
     0.000010468  0.023467800 -0.000004402    -0.000000000  0.125000000  0.000000000
    -0.000000726 -0.000001345  0.007303973     0.000000000 -0.000000000  0.166666667

  Length of vectors
     0.023466472  0.023467803  0.007303974

  Shift w.r.t. Gamma in fractional coordinates (k-lattice)
     0.500000000  0.500000000  0.500000000

 
 Subroutine IBZKPT returns following result:
 ===========================================
 
 Found    192 irreducible k-points:
 
 Following reciprocal coordinates:
            Coordinates               Weight
  0.062500  0.062500  0.083333      2.000000
  0.187500  0.062500  0.083333      2.000000
  0.312500  0.062500  0.083333      2.000000
  0.437500  0.062500  0.083333      2.000000
 -0.437500  0.062500  0.083333      2.000000
 -0.312500  0.062500  0.083333      2.000000
 -0.187500  0.062500  0.083333      2.000000
 -0.062500  0.062500  0.083333      2.000000
  0.062500  0.187500  0.083333      2.000000
  0.187500  0.187500  0.083333      2.000000
  0.312500  0.187500  0.083333      2.000000
  0.437500  0.187500  0.083333      2.000000
 -0.437500  0.187500  0.083333      2.000000
 -0.312500  0.187500  0.083333      2.000000
 -0.187500  0.187500  0.083333      2.000000
 -0.062500  0.187500  0.083333      2.000000
  0.062500  0.312500  0.083333      2.000000
  0.187500  0.312500  0.083333      2.000000
  0.312500  0.312500  0.083333      2.000000
  0.437500  0.312500  0.083333      2.000000
 -0.437500  0.312500  0.083333      2.000000
 -0.312500  0.312500  0.083333      2.000000
 -0.187500  0.312500  0.083333      2.000000
 -0.062500  0.312500  0.083333      2.000000
  0.062500  0.437500  0.083333      2.000000
  0.187500  0.437500  0.083333      2.000000
  0.312500  0.437500  0.083333      2.000000
  0.437500  0.437500  0.083333      2.000000
 -0.437500  0.437500  0.083333      2.000000
 -0.312500  0.437500  0.083333      2.000000
 -0.187500  0.437500  0.083333      2.000000
 -0.062500  0.437500  0.083333      2.000000
  0.062500 -0.437500  0.083333      2.000000
  0.187500 -0.437500  0.083333      2.000000
  0.312500 -0.437500  0.083333      2.000000
  0.437500 -0.437500  0.083333      2.000000
 -0.437500 -0.437500  0.083333      2.000000
 -0.312500 -0.437500  0.083333      2.000000
 -0.187500 -0.437500  0.083333      2.000000
 -0.062500 -0.437500  0.083333      2.000000
  0.062500 -0.312500  0.083333      2.000000
  0.187500 -0.312500  0.083333      2.000000
  0.312500 -0.312500  0.083333      2.000000
  0.437500 -0.312500  0.083333      2.000000
 -0.437500 -0.312500  0.083333      2.000000
 -0.312500 -0.312500  0.083333      2.000000
 -0.187500 -0.312500  0.083333      2.000000
 -0.062500 -0.312500  0.083333      2.000000
  0.062500 -0.187500  0.083333      2.000000
  0.187500 -0.187500  0.083333      2.000000
  0.312500 -0.187500  0.083333      2.000000
  0.437500 -0.187500  0.083333      2.000000
 -0.437500 -0.187500  0.083333      2.000000
 -0.312500 -0.187500  0.083333      2.000000
 -0.187500 -0.187500  0.083333      2.000000
 -0.062500 -0.187500  0.083333      2.000000
  0.062500 -0.062500  0.083333      2.000000
  0.187500 -0.062500  0.083333      2.000000
  0.312500 -0.062500  0.083333      2.000000
  0.437500 -0.062500  0.083333      2.000000
 -0.437500 -0.062500  0.083333      2.000000
 -0.312500 -0.062500  0.083333      2.000000
 -0.187500 -0.062500  0.083333      2.000000
 -0.062500 -0.062500  0.083333      2.000000
  0.062500  0.062500  0.250000      2.000000
  0.187500  0.062500  0.250000      2.000000
  0.312500  0.062500  0.250000      2.000000
  0.437500  0.062500  0.250000      2.000000
 -0.437500  0.062500  0.250000      2.000000
 -0.312500  0.062500  0.250000      2.000000
 -0.187500  0.062500  0.250000      2.000000
 -0.062500  0.062500  0.250000      2.000000
  0.062500  0.187500  0.250000      2.000000
  0.187500  0.187500  0.250000      2.000000
  0.312500  0.187500  0.250000      2.000000
  0.437500  0.187500  0.250000      2.000000
 -0.437500  0.187500  0.250000      2.000000
 -0.312500  0.187500  0.250000      2.000000
 -0.187500  0.187500  0.250000      2.000000
 -0.062500  0.187500  0.250000      2.000000
  0.062500  0.312500  0.250000      2.000000
  0.187500  0.312500  0.250000      2.000000
  0.312500  0.312500  0.250000      2.000000
  0.437500  0.312500  0.250000      2.000000
 -0.437500  0.312500  0.250000      2.000000
 -0.312500  0.312500  0.250000      2.000000
 -0.187500  0.312500  0.250000      2.000000
 -0.062500  0.312500  0.250000      2.000000
  0.062500  0.437500  0.250000      2.000000
  0.187500  0.437500  0.250000      2.000000
  0.312500  0.437500  0.250000      2.000000
  0.437500  0.437500  0.250000      2.000000
 -0.437500  0.437500  0.250000      2.000000
 -0.312500  0.437500  0.250000      2.000000
 -0.187500  0.437500  0.250000      2.000000
 -0.062500  0.437500  0.250000      2.000000
  0.062500 -0.437500  0.250000      2.000000
  0.187500 -0.437500  0.250000      2.000000
  0.312500 -0.437500  0.250000      2.000000
  0.437500 -0.437500  0.250000      2.000000
 -0.437500 -0.437500  0.250000      2.000000
 -0.312500 -0.437500  0.250000      2.000000
 -0.187500 -0.437500  0.250000      2.000000
 -0.062500 -0.437500  0.250000      2.000000
  0.062500 -0.312500  0.250000      2.000000
  0.187500 -0.312500  0.250000      2.000000
  0.312500 -0.312500  0.250000      2.000000
  0.437500 -0.312500  0.250000      2.000000
 -0.437500 -0.312500  0.250000      2.000000
 -0.312500 -0.312500  0.250000      2.000000
 -0.187500 -0.312500  0.250000      2.000000
 -0.062500 -0.312500  0.250000      2.000000
  0.062500 -0.187500  0.250000      2.000000
  0.187500 -0.187500  0.250000      2.000000
  0.312500 -0.187500  0.250000      2.000000
  0.437500 -0.187500  0.250000      2.000000
 -0.437500 -0.187500  0.250000      2.000000
 -0.312500 -0.187500  0.250000      2.000000
 -0.187500 -0.187500  0.250000      2.000000
 -0.062500 -0.187500  0.250000      2.000000
  0.062500 -0.062500  0.250000      2.000000
  0.187500 -0.062500  0.250000      2.000000
  0.312500 -0.062500  0.250000      2.000000
  0.437500 -0.062500  0.250000      2.000000
 -0.437500 -0.062500  0.250000      2.000000
 -0.312500 -0.062500  0.250000      2.000000
 -0.187500 -0.062500  0.250000      2.000000
 -0.062500 -0.062500  0.250000      2.000000
  0.062500  0.062500  0.416667      2.000000
  0.187500  0.062500  0.416667      2.000000
  0.312500  0.062500  0.416667      2.000000
  0.437500  0.062500  0.416667      2.000000
 -0.437500  0.062500  0.416667      2.000000
 -0.312500  0.062500  0.416667      2.000000
 -0.187500  0.062500  0.416667      2.000000
 -0.062500  0.062500  0.416667      2.000000
  0.062500  0.187500  0.416667      2.000000
  0.187500  0.187500  0.416667      2.000000
  0.312500  0.187500  0.416667      2.000000
  0.437500  0.187500  0.416667      2.000000
 -0.437500  0.187500  0.416667      2.000000
 -0.312500  0.187500  0.416667      2.000000
 -0.187500  0.187500  0.416667      2.000000
 -0.062500  0.187500  0.416667      2.000000
  0.062500  0.312500  0.416667      2.000000
  0.187500  0.312500  0.416667      2.000000
  0.312500  0.312500  0.416667      2.000000
  0.437500  0.312500  0.416667      2.000000
 -0.437500  0.312500  0.416667      2.000000
 -0.312500  0.312500  0.416667      2.000000
 -0.187500  0.312500  0.416667      2.000000
 -0.062500  0.312500  0.416667      2.000000
  0.062500  0.437500  0.416667      2.000000
  0.187500  0.437500  0.416667      2.000000
  0.312500  0.437500  0.416667      2.000000
  0.437500  0.437500  0.416667      2.000000
 -0.437500  0.437500  0.416667      2.000000
 -0.312500  0.437500  0.416667      2.000000
 -0.187500  0.437500  0.416667      2.000000
 -0.062500  0.437500  0.416667      2.000000
  0.062500 -0.437500  0.416667      2.000000
  0.187500 -0.437500  0.416667      2.000000
  0.312500 -0.437500  0.416667      2.000000
  0.437500 -0.437500  0.416667      2.000000
 -0.437500 -0.437500  0.416667      2.000000
 -0.312500 -0.437500  0.416667      2.000000
 -0.187500 -0.437500  0.416667      2.000000
 -0.062500 -0.437500  0.416667      2.000000
  0.062500 -0.312500  0.416667      2.000000
  0.187500 -0.312500  0.416667      2.000000
  0.312500 -0.312500  0.416667      2.000000
  0.437500 -0.312500  0.416667      2.000000
 -0.437500 -0.312500  0.416667      2.000000
 -0.312500 -0.312500  0.416667      2.000000
 -0.187500 -0.312500  0.416667      2.000000
 -0.062500 -0.312500  0.416667      2.000000
  0.062500 -0.187500  0.416667      2.000000
  0.187500 -0.187500  0.416667      2.000000
  0.312500 -0.187500  0.416667      2.000000
  0.437500 -0.187500  0.416667      2.000000
 -0.437500 -0.187500  0.416667      2.000000
 -0.312500 -0.187500  0.416667      2.000000
 -0.187500 -0.187500  0.416667      2.000000
 -0.062500 -0.187500  0.416667      2.000000
  0.062500 -0.062500  0.416667      2.000000
  0.187500 -0.062500  0.416667      2.000000
  0.312500 -0.062500  0.416667      2.000000
  0.437500 -0.062500  0.416667      2.000000
 -0.437500 -0.062500  0.416667      2.000000
 -0.312500 -0.062500  0.416667      2.000000
 -0.187500 -0.062500  0.416667      2.000000
 -0.062500 -0.062500  0.416667      2.000000
 
 Following cartesian coordinates:
            Coordinates               Weight
  0.010163  0.017605  0.003648      2.000000
  0.030480  0.029348  0.003643      2.000000
  0.050797  0.041091  0.003639      2.000000
  0.071114  0.052834  0.003635      2.000000
 -0.071104 -0.029367  0.003665      2.000000
 -0.050787 -0.017624  0.003660      2.000000
 -0.030471 -0.005881  0.003656      2.000000
 -0.010154  0.005862  0.003652      2.000000
  0.010174  0.041073  0.003643      2.000000
  0.030491  0.052815  0.003639      2.000000
  0.050808  0.064558  0.003635      2.000000
  0.071125  0.076301  0.003630      2.000000
 -0.071094 -0.005899  0.003660      2.000000
 -0.050777  0.005844  0.003656      2.000000
 -0.030460  0.017587  0.003652      2.000000
 -0.010143  0.029330  0.003648      2.000000
  0.010184  0.064540  0.003639      2.000000
  0.030501  0.076283  0.003635      2.000000
  0.050818  0.088026  0.003630      2.000000
  0.071135  0.099769  0.003626      2.000000
 -0.071083  0.017568  0.003656      2.000000
 -0.050767  0.029311  0.003652      2.000000
 -0.030450  0.041054  0.003647      2.000000
 -0.010133  0.052797  0.003643      2.000000
  0.010195  0.088008  0.003634      2.000000
  0.030512  0.099751  0.003630      2.000000
  0.050829  0.111494  0.003626      2.000000
  0.071146  0.123237  0.003622      2.000000
 -0.071073  0.041036  0.003651      2.000000
 -0.050756  0.052779  0.003647      2.000000
 -0.030439  0.064522  0.003643      2.000000
 -0.010122  0.076265  0.003639      2.000000
  0.010121 -0.076266  0.003665      2.000000
  0.030438 -0.064524  0.003661      2.000000
  0.050755 -0.052781  0.003657      2.000000
  0.071072 -0.041038  0.003652      2.000000
 -0.071146 -0.123238  0.003682      2.000000
 -0.050829 -0.111495  0.003678      2.000000
 -0.030512 -0.099752  0.003674      2.000000
 -0.010195 -0.088009  0.003670      2.000000
  0.010132 -0.052799  0.003661      2.000000
  0.030449 -0.041056  0.003657      2.000000
  0.050766 -0.029313  0.003652      2.000000
  0.071083 -0.017570  0.003648      2.000000
 -0.071136 -0.099771  0.003678      2.000000
 -0.050819 -0.088028  0.003674      2.000000
 -0.030502 -0.076285  0.003669      2.000000
 -0.010185 -0.064542  0.003665      2.000000
  0.010142 -0.029331  0.003656      2.000000
  0.030459 -0.017588  0.003652      2.000000
  0.050776 -0.005845  0.003648      2.000000
  0.071093  0.005898  0.003644      2.000000
 -0.071125 -0.076303  0.003673      2.000000
 -0.050808 -0.064560  0.003669      2.000000
 -0.030491 -0.052817  0.003665      2.000000
 -0.010175 -0.041074  0.003661      2.000000
  0.010153 -0.005863  0.003652      2.000000
  0.030470  0.005880  0.003648      2.000000
  0.050787  0.017623  0.003644      2.000000
  0.071104  0.029366  0.003639      2.000000
 -0.071115 -0.052835  0.003669      2.000000
 -0.050798 -0.041092  0.003665      2.000000
 -0.030481 -0.029349  0.003661      2.000000
 -0.010164 -0.017606  0.003656      2.000000
  0.010163  0.017603  0.010952      2.000000
  0.030480  0.029346  0.010947      2.000000
  0.050796  0.041089  0.010943      2.000000
  0.071113  0.052832  0.010939      2.000000
 -0.071105 -0.029368  0.010969      2.000000
 -0.050788 -0.017626  0.010964      2.000000
 -0.030471 -0.005883  0.010960      2.000000
 -0.010154  0.005860  0.010956      2.000000
  0.010173  0.041071  0.010947      2.000000
  0.030490  0.052814  0.010943      2.000000
  0.050807  0.064557  0.010939      2.000000
  0.071124  0.076300  0.010934      2.000000
 -0.071095 -0.005901  0.010964      2.000000
 -0.050778  0.005842  0.010960      2.000000
 -0.030461  0.017585  0.010956      2.000000
 -0.010144  0.029328  0.010951      2.000000
  0.010184  0.064539  0.010943      2.000000
  0.030500  0.076282  0.010939      2.000000
  0.050817  0.088025  0.010934      2.000000
  0.071134  0.099768  0.010930      2.000000
 -0.071084  0.017567  0.010960      2.000000
 -0.050767  0.029310  0.010956      2.000000
 -0.030450  0.041053  0.010951      2.000000
 -0.010133  0.052796  0.010947      2.000000
  0.010194  0.088007  0.010938      2.000000
  0.030511  0.099750  0.010934      2.000000
  0.050828  0.111493  0.010930      2.000000
  0.071145  0.123236  0.010926      2.000000
 -0.071074  0.041035  0.010955      2.000000
 -0.050757  0.052778  0.010951      2.000000
 -0.030440  0.064521  0.010947      2.000000
 -0.010123  0.076264  0.010943      2.000000
  0.010121 -0.076268  0.010969      2.000000
  0.030438 -0.064525  0.010965      2.000000
  0.050755 -0.052782  0.010961      2.000000
  0.071072 -0.041039  0.010956      2.000000
 -0.071147 -0.123240  0.010986      2.000000
 -0.050830 -0.111497  0.010982      2.000000
 -0.030513 -0.099754  0.010978      2.000000
 -0.010196 -0.088011  0.010973      2.000000
  0.010131 -0.052800  0.010965      2.000000
  0.030448 -0.041057  0.010961      2.000000
  0.050765 -0.029314  0.010956      2.000000
  0.071082 -0.017571  0.010952      2.000000
 -0.071137 -0.099772  0.010982      2.000000
 -0.050820 -0.088029  0.010978      2.000000
 -0.030503 -0.076286  0.010973      2.000000
 -0.010186 -0.064543  0.010969      2.000000
  0.010142 -0.029332  0.010960      2.000000
  0.030459 -0.017589  0.010956      2.000000
  0.050776 -0.005846  0.010952      2.000000
  0.071092  0.005897  0.010948      2.000000
 -0.071126 -0.076304  0.010977      2.000000
 -0.050809 -0.064561  0.010973      2.000000
 -0.030492 -0.052818  0.010969      2.000000
 -0.010175 -0.041075  0.010965      2.000000
  0.010152 -0.005864  0.010956      2.000000
  0.030469  0.005879  0.010952      2.000000
  0.050786  0.017621  0.010948      2.000000
  0.071103  0.029364  0.010943      2.000000
 -0.071116 -0.052836  0.010973      2.000000
 -0.050799 -0.041093  0.010969      2.000000
 -0.030482 -0.029350  0.010965      2.000000
 -0.010165 -0.017607  0.010960      2.000000
  0.010162  0.017602  0.018256      2.000000
  0.030479  0.029345  0.018251      2.000000
  0.050796  0.041088  0.018247      2.000000
  0.071113  0.052831  0.018243      2.000000
 -0.071106 -0.029370  0.018273      2.000000
 -0.050789 -0.017627  0.018268      2.000000
 -0.030472 -0.005884  0.018264      2.000000
 -0.010155  0.005859  0.018260      2.000000
  0.010172  0.041070  0.018251      2.000000
  0.030489  0.052813  0.018247      2.000000
  0.050806  0.064556  0.018243      2.000000
  0.071123  0.076299  0.018238      2.000000
 -0.071095 -0.005902  0.018268      2.000000
 -0.050778  0.005841  0.018264      2.000000
 -0.030462  0.017584  0.018260      2.000000
 -0.010145  0.029327  0.018255      2.000000
  0.010183  0.064538  0.018247      2.000000
  0.030500  0.076281  0.018243      2.000000
  0.050817  0.088024  0.018238      2.000000
  0.071134  0.099767  0.018234      2.000000
 -0.071085  0.017566  0.018264      2.000000
 -0.050768  0.029309  0.018260      2.000000
 -0.030451  0.041052  0.018255      2.000000
 -0.010134  0.052795  0.018251      2.000000
  0.010193  0.088005  0.018242      2.000000
  0.030510  0.099748  0.018238      2.000000
  0.050827  0.111491  0.018234      2.000000
  0.071144  0.123234  0.018230      2.000000
 -0.071074  0.041034  0.018259      2.000000
 -0.050758  0.052777  0.018255      2.000000
 -0.030441  0.064519  0.018251      2.000000
 -0.010124  0.076262  0.018247      2.000000
  0.010120 -0.076269  0.018273      2.000000
  0.030437 -0.064526  0.018269      2.000000
  0.050754 -0.052783  0.018265      2.000000
  0.071071 -0.041040  0.018260      2.000000
 -0.071148 -0.123241  0.018290      2.000000
 -0.050831 -0.111498  0.018286      2.000000
 -0.030514 -0.099755  0.018282      2.000000
 -0.010197 -0.088012  0.018277      2.000000
  0.010130 -0.052801  0.018269      2.000000
  0.030447 -0.041058  0.018265      2.000000
  0.050764 -0.029315  0.018260      2.000000
  0.071081 -0.017572  0.018256      2.000000
 -0.071137 -0.099773  0.018286      2.000000
 -0.050820 -0.088030  0.018282      2.000000
 -0.030503 -0.076287  0.018277      2.000000
 -0.010186 -0.064544  0.018273      2.000000
  0.010141 -0.029334  0.018264      2.000000
  0.030458 -0.017591  0.018260      2.000000
  0.050775 -0.005848  0.018256      2.000000
  0.071092  0.005895  0.018252      2.000000
 -0.071127 -0.076305  0.018281      2.000000
 -0.050810 -0.064562  0.018277      2.000000
 -0.030493 -0.052820  0.018273      2.000000
 -0.010176 -0.041077  0.018269      2.000000
  0.010151 -0.005866  0.018260      2.000000
  0.030468  0.005877  0.018256      2.000000
  0.050785  0.017620  0.018251      2.000000
  0.071102  0.029363  0.018247      2.000000
 -0.071116 -0.052838  0.018277      2.000000
 -0.050799 -0.041095  0.018273      2.000000
 -0.030482 -0.029352  0.018269      2.000000
 -0.010166 -0.017609  0.018264      2.000000
 


--------------------------------------------------------------------------------------------------------




 Dimension of arrays:
   k-points           NKPTS =    192   k-points in BZ     NKDIM =    192   number of bands    NBANDS=     42
   number of dos      NEDOS =    301   number of ions     NIONS =      8
   non local maximal  LDIM  =      6   non local SUM 2l+1 LMDIM =     18
   total plane-waves  NPLWV = 414720
   max r-space proj   IRMAX =      1   max aug-charges    IRDMAX=  28521
   dimension x,y,z NGX =    48 NGY =   48 NGZ =  180
   dimension x,y,z NGXF=    96 NGYF=   96 NGZF=  360
   support grid    NGXF=    96 NGYF=   96 NGZF=  360
   ions per type =               2   6
   NGX,Y,Z   is equivalent  to a cutoff of  12.97, 12.97, 13.11 a.u.
   NGXF,Y,Z  is equivalent  to a cutoff of  25.93, 25.93, 26.23 a.u.

 SYSTEM =  CrCl3 KPOINT Test                       
 POSCAR =                                          

 Startparameter for this run:
   NWRITE =      2    write-flag & timer
   PREC   = accura    normal or accurate (medium, high low for compatibility)
   ISTART =      0    job   : 0-new  1-cont  2-samecut
   ICHARG =      2    charge: 1-file 2-atom 10-const
   ISPIN  =      2    spin polarized calculation?
   LNONCOLLINEAR =      F non collinear calculations
   LSORBIT =      F    spin-orbit coupling
   INIWAV =      1    electr: 0-lowe 1-rand  2-diag
   LASPH  =      F    aspherical Exc in radial PAW
 Electronic Relaxation 1
   ENCUT  =  520.0 eV  38.22 Ry    6.18 a.u.  11.44 11.44 42.43*2*pi/ulx,y,z
   ENINI  =  520.0     initial cutoff
   ENAUG  =  402.1 eV  augmentation charge cutoff
   NELM   =     60;   NELMIN=  2; NELMDL= -5     # of ELM steps 
   EDIFF  = 0.1E-05   stopping-criterion for ELM
   LREAL  =      F    real-space projection
   NLSPLINE    = F    spline interpolate recip. space projectors
   LCOMPAT=      F    compatible to vasp.4.4
   GGA_COMPAT  = T    GGA compatible to vasp.4.4-vasp.4.6
   LMAXPAW     = -100 max onsite density
   LMAXMIX     =    2 max onsite mixed and CHGCAR
   VOSKOWN=      0    Vosko Wilk Nusair interpolation
   ROPT   =    0.00000   0.00000
 Ionic relaxation
   EDIFFG = 0.1E-04   stopping-criterion for IOM
   NSW    =      0    number of steps for IOM
   NBLOCK =      1;   KBLOCK =      1    inner block; outer block 
   IBRION =     -1    ionic relax: 0-MD 1-quasi-New 2-CG
   NFREE  =      0    steps in history (QN), initial steepest desc. (CG)
   ISIF   =      2    stress and relaxation
   IWAVPR =     10    prediction:  0-non 1-charg 2-wave 3-comb
   ISYM   =      2    0-nonsym 1-usesym 2-fastsym
   LCORR  =      T    Harris-Foulkes like correction to forces

   POTIM  = 0.5000    time-step for ionic-motion
   TEIN   =    0.0    initial temperature
   TEBEG  =    0.0;   TEEND  =   0.0 temperature during run
   SMASS  =  -3.00    Nose mass-parameter (am)
   estimated Nose-frequenzy (Omega)   =  0.10E-29 period in steps = 0.13E+47 mass=  -0.865E-27a.u.
   SCALEE = 1.0000    scale energy and forces
   NPACO  =    256;   APACO  = 10.0  distance and # of slots for P.C.
   PSTRESS=    0.0 pullay stress

  Mass of Ions in am
   POMASS =  52.00 35.45
  Ionic Valenz
   ZVAL   =   6.00  7.00
  Atomic Wigner-Seitz radii
   RWIGS  =  -1.00 -1.00
  virtual crystal weights 
   VCA    =   1.00  1.00
   NELECT =      54.0000    total number of electrons
   NUPDOWN=      -1.0000    fix difference up-down

 DOS related values:
   EMIN   =  10.00;   EMAX   =-10.00  energy-range for DOS
   EFERMI =   0.00;   METHOD = LEGACY      
   ISMEAR =     0;   SIGMA  =   0.05  broadening in eV -4-tet -1-fermi 0-gaus
   EFERMI_NEDOS =   21; number of points for ismear=-14 and -15

 Electronic relaxation 2 (details)
   IALGO  =     38    algorithm
   LDIAG  =      T    sub-space diagonalisation (order eigenvalues)
   LSUBROT=      F    optimize rotation matrix (better conditioning)
   LROBUST=      F    robust break criterion during scf (extrapolated energy error)
   ISEARCH=      0    line search for conjugate gradient (0, 1=use gradient)
   TURBO    =      0    0=normal 1=particle mesh
   IRESTART =      0    0=no restart 2=restart with 2 vectors
   NREBOOT  =      0    no. of reboots
   NMIN     =      0    reboot dimension
   EREF     =   0.00    reference energy to select bands
   IMIX   =      4    mixing-type and parameters
     AMIX     =   0.40;   BMIX     =  1.00
     AMIX_MAG =   1.60;   BMIX_MAG =  1.00
     AMIN     =   0.10
     WC   =   100.;   INIMIX=   1;  MIXPRE=   1;  MAXMIX= -45

 Intra band minimization:
   WEIMIN = 0.0000     energy-eigenvalue tresh-hold
   EBREAK =  0.60E-08  absolut break condition
   DEPER  =   0.30     relativ break condition  

   TIME   =   0.40     timestep for ELM

  volume/ion in A,a.u.               =      93.50       630.95
  Fermi-wavevector in a.u.,A,eV,Ry     =   0.681673  1.288174  6.322320  0.464677
  Thomas-Fermi vector in A             =   1.760523
 
 Write flags
   LWAVE        =      F    write WAVECAR
   LDOWNSAMPLE  =      F    k-point downsampling of WAVECAR
   LCHARG       =      F    write CHGCAR
   LVTOT        =      F    write LOCPOT, total local potential
   LVHAR        =      F    write LOCPOT, Hartree potential only
   WRT_POTENTIAL= false  ! write potential to hdf5 file
   LELF         =      F    write electronic localiz. function (ELF)
   LORBIT       =      0    0 simple, 1 ext, 2 COOP (PROOUT), +10 PAW based schemes


 Python interface
   PLUGINS active      =      F    recompile with -DPLUGINS to activate
 
 Dipole corrections
   LMONO      =      F    monopole corrections only (constant potential shift)
   LDIPOL     =      F    correct potential (dipole corrections)
   IDIPOL     =      0    1-x, 2-y, 3-z, 4-all directions 
   EPSILON    =  1.0000000 bulk dielectric constant
   LVACPOTAV  =      F  vacuum potentials using an averaging scheme for the charge density
   VACPOTFLAT =  0.1000000 required flatness to determine vacuum potential
 
Coulomb truncation method
  LTRUNCATE          =      F  Coulomb kernel truncation to be used

 
 Exchange correlation treatment:
   GGA     = PE    functional components
   XC_C    = 1    coefficients multiplying the functional components
   LIBXC   =     F    Libxc                    
   VOSKOWN =     0    Vosko Wilk Nusair interpolation
   LHFCALC =     F    Hartree Fock is set to
   LHFONE  =     F    Hartree Fock one center treatment
   AEXX    =    0.0000 exact exchange contribution

 Parameters of functionals:
   PE:
     No parameter
 
 Van der Waals corrections
   IVDW    =     0    specifies the selected vdW correction

 Linear response parameters
   LEPSILON=     F    determine dielectric tensor
   LRPA    =     F    only Hartree local field effects (RPA)
   LNABLA  =     F    use nabla operator in PAW spheres
   LVEL    =     F    velocity operator in full k-point grid
   CSHIFT  =0.1000    complex shift for real part using Kramers Kronig
   OMEGAMAX=  -1.0    maximum frequency
   DEG_THRESHOLD= 0.2000000E-02 threshold for treating states as degnerate
   RTIME   =   -0.100 relaxation time in fs
  (WPLASMAI=    0.000 imaginary part of plasma frequency in eV, 0.658/RTIME)
   DFIELD  = 0.0000000 0.0000000 0.0000000 field for delta impulse in time
 
  Optional k-point grid parameters
   LKPOINTS_OPT  =     F    use optional k-point grid
   KPOINTS_OPT_MODE=     1    mode for optional k-point grid
 
 Orbital magnetization related:
   ORBITALMAG=     F  switch on orbital magnetization
   LCHIMAG   =     F  perturbation theory with respect to B field
   DQ        =  0.001000  dq finite difference perturbation B field
   LLRAUG    =     F  two centre corrections for induced B field
   LBONE     =     F  B-component reconstruction in AE one-centre
   LVGVCALC  =     T  calculate vGv susceptibility
   LVGVAPPL  =     F  apply vGv susceptibility instead of pGv for G=0

 Random number generation:
   RANDOM_GENERATOR = DEFAULT
   PCG_SEED         = not used


--------------------------------------------------------------------------------------------------------


 Static calculation
 charge density and potential will be updated during run
 spin polarized calculation
 Variant of blocked Davidson
 Davidson routine will perform the subspace rotation
 perform sub-space diagonalisation
    after iterative eigenvector-optimisation
 modified Broyden-mixing scheme, WC =      100.0
 initial mixing is a Kerker type mixing with AMIX =  0.4000 and BMIX =      1.0000
 Hartree-type preconditioning will be used
 using additional bands           15
 reciprocal scheme for non local part
 use partial core corrections
 calculate Harris-corrections to forces 
   (improved forces if not selfconsistent)
 use gradient corrections 
 use of overlap-Matrix (Vanderbilt PP)
 Gauss-broadening in eV      SIGMA  =   0.05


--------------------------------------------------------------------------------------------------------


  energy-cutoff  :      520.00
  volume of cell :      747.98
      direct lattice vectors                 reciprocal lattice vectors
     6.154088000 -0.002745000  0.000611000     0.162535521  0.093943719 -0.000034071
    -3.079421000  5.327821000  0.000675000     0.000083745  0.187742402 -0.000035214
     0.002310000  0.004279000 22.818631000    -0.000004355 -0.000008069  0.043823840

  length of vectors
     6.154088643  6.153739575 22.818631518     0.187731774  0.187742424  0.043823841


 
 k-points in units of 2pi/SCALE and weight: Automatic mesh                          
   0.01016334  0.01760471  0.00364766       0.005
   0.03048028  0.02934767  0.00364340       0.005
   0.05079722  0.04109064  0.00363914       0.005
   0.07111416  0.05283360  0.00363488       0.005
  -0.07110442 -0.02936715  0.00366469       0.005
  -0.05078748 -0.01762418  0.00366043       0.005
  -0.03047054 -0.00588122  0.00365617       0.005
  -0.01015360  0.00586175  0.00365192       0.005
   0.01017381  0.04107251  0.00364325       0.005
   0.03049075  0.05281548  0.00363900       0.005
   0.05080769  0.06455844  0.00363474       0.005
   0.07112463  0.07630140  0.00363048       0.005
  -0.07109395 -0.00589935  0.00366029       0.005
  -0.05077701  0.00584362  0.00365603       0.005
  -0.03046007  0.01758658  0.00365177       0.005
  -0.01014313  0.02932955  0.00364751       0.005
   0.01018428  0.06454031  0.00363885       0.005
   0.03050122  0.07628328  0.00363459       0.005
   0.05081816  0.08802624  0.00363034       0.005
   0.07113510  0.09976921  0.00362608       0.005
  -0.07108348  0.01756845  0.00365589       0.005
  -0.05076654  0.02931142  0.00365163       0.005
  -0.03044960  0.04105438  0.00364737       0.005
  -0.01013266  0.05279735  0.00364311       0.005
   0.01019475  0.08800811  0.00363445       0.005
   0.03051169  0.09975108  0.00363019       0.005
   0.05082863  0.11149404  0.00362593       0.005
   0.07114557  0.12323701  0.00362167       0.005
  -0.07107301  0.04103625  0.00365149       0.005
  -0.05075607  0.05277922  0.00364723       0.005
  -0.03043913  0.06452218  0.00364297       0.005
  -0.01012219  0.07626515  0.00363871       0.005
   0.01012147 -0.07626649  0.00366526       0.005
   0.03043841 -0.06452353  0.00366100       0.005
   0.05075535 -0.05278056  0.00365675       0.005
   0.07107229 -0.04103760  0.00365249       0.005
  -0.07114629 -0.12323835  0.00368230       0.005
  -0.05082935 -0.11149539  0.00367804       0.005
  -0.03051241 -0.09975242  0.00367378       0.005
  -0.01019547 -0.08800946  0.00366952       0.005
   0.01013194 -0.05279869  0.00366086       0.005
   0.03044888 -0.04105573  0.00365660       0.005
   0.05076582 -0.02931276  0.00365234       0.005
   0.07108276 -0.01756980  0.00364809       0.005
  -0.07113582 -0.09977055  0.00367790       0.005
  -0.05081888 -0.08802759  0.00367364       0.005
  -0.03050194 -0.07628462  0.00366938       0.005
  -0.01018500 -0.06454166  0.00366512       0.005
   0.01014240 -0.02933089  0.00365646       0.005
   0.03045935 -0.01758793  0.00365220       0.005
   0.05077629 -0.00584496  0.00364794       0.005
   0.07109323  0.00589800  0.00364368       0.005
  -0.07112536 -0.07630275  0.00367350       0.005
  -0.05080842 -0.06455978  0.00366924       0.005
  -0.03049148 -0.05281682  0.00366498       0.005
  -0.01017454 -0.04107386  0.00366072       0.005
   0.01015287 -0.00586309  0.00365206       0.005
   0.03046981  0.00587987  0.00364780       0.005
   0.05078675  0.01762284  0.00364354       0.005
   0.07110369  0.02936580  0.00363928       0.005
  -0.07111489 -0.05283495  0.00366909       0.005
  -0.05079795 -0.04109198  0.00366483       0.005
  -0.03048101 -0.02934902  0.00366058       0.005
  -0.01016407 -0.01760605  0.00365632       0.005
   0.01016262  0.01760337  0.01095163       0.005
   0.03047956  0.02934633  0.01094737       0.005
   0.05079650  0.04108929  0.01094311       0.005
   0.07111344  0.05283226  0.01093885       0.005
  -0.07110514 -0.02936849  0.01096867       0.005
  -0.05078820 -0.01762553  0.01096441       0.005
  -0.03047126 -0.00588256  0.01096015       0.005
  -0.01015432  0.00586040  0.01095589       0.005
   0.01017308  0.04107117  0.01094723       0.005
   0.03049002  0.05281413  0.01094297       0.005
   0.05080696  0.06455710  0.01093871       0.005
   0.07112390  0.07630006  0.01093445       0.005
  -0.07109468 -0.00590069  0.01096426       0.005
  -0.05077774  0.00584227  0.01096000       0.005
  -0.03046080  0.01758524  0.01095575       0.005
  -0.01014386  0.02932820  0.01095149       0.005
   0.01018355  0.06453897  0.01094283       0.005
   0.03050049  0.07628193  0.01093857       0.005
   0.05081743  0.08802490  0.01093431       0.005
   0.07113437  0.09976786  0.01093005       0.005
  -0.07108421  0.01756711  0.01095986       0.005
  -0.05076727  0.02931007  0.01095560       0.005
  -0.03045033  0.04105304  0.01095134       0.005
  -0.01013339  0.05279600  0.01094709       0.005
   0.01019402  0.08800677  0.01093842       0.005
   0.03051096  0.09974973  0.01093417       0.005
   0.05082790  0.11149270  0.01092991       0.005
   0.07114484  0.12323566  0.01092565       0.005
  -0.07107374  0.04103491  0.01095546       0.005
  -0.05075680  0.05277787  0.01095120       0.005
  -0.03043986  0.06452084  0.01094694       0.005
  -0.01012292  0.07626380  0.01094268       0.005
   0.01012074 -0.07626784  0.01096924       0.005
   0.03043768 -0.06452487  0.01096498       0.005
   0.05075462 -0.05278191  0.01096072       0.005
   0.07107156 -0.04103894  0.01095646       0.005
  -0.07114702 -0.12323969  0.01098627       0.005
  -0.05083008 -0.11149673  0.01098201       0.005
  -0.03051314 -0.09975377  0.01097775       0.005
  -0.01019620 -0.08801080  0.01097350       0.005
   0.01013121 -0.05280004  0.01096484       0.005
   0.03044815 -0.04105707  0.01096058       0.005
   0.05076509 -0.02931411  0.01095632       0.005
   0.07108203 -0.01757114  0.01095206       0.005
  -0.07113655 -0.09977189  0.01098187       0.005
  -0.05081961 -0.08802893  0.01097761       0.005
  -0.03050267 -0.07628597  0.01097335       0.005
  -0.01018573 -0.06454300  0.01096909       0.005
   0.01014168 -0.02933224  0.01096043       0.005
   0.03045862 -0.01758927  0.01095617       0.005
   0.05077556 -0.00584631  0.01095192       0.005
   0.07109250  0.00589666  0.01094766       0.005
  -0.07112608 -0.07630409  0.01097747       0.005
  -0.05080914 -0.06456113  0.01097321       0.005
  -0.03049220 -0.05281816  0.01096895       0.005
  -0.01017526 -0.04107520  0.01096469       0.005
   0.01015215 -0.00586443  0.01095603       0.005
   0.03046909  0.00587853  0.01095177       0.005
   0.05078603  0.01762149  0.01094751       0.005
   0.07110297  0.02936446  0.01094326       0.005
  -0.07111561 -0.05283629  0.01097307       0.005
  -0.05079867 -0.04109333  0.01096881       0.005
  -0.03048173 -0.02935036  0.01096455       0.005
  -0.01016479 -0.01760740  0.01096029       0.005
   0.01016189  0.01760202  0.01825560       0.005
   0.03047883  0.02934499  0.01825134       0.005
   0.05079577  0.04108795  0.01824709       0.005
   0.07111271  0.05283091  0.01824283       0.005
  -0.07110587 -0.02936984  0.01827264       0.005
  -0.05078893 -0.01762687  0.01826838       0.005
  -0.03047199 -0.00588391  0.01826412       0.005
  -0.01015505  0.00585906  0.01825986       0.005
   0.01017236  0.04106982  0.01825120       0.005
   0.03048930  0.05281279  0.01824694       0.005
   0.05080624  0.06455575  0.01824268       0.005
   0.07112318  0.07629872  0.01823842       0.005
  -0.07109540 -0.00590204  0.01826824       0.005
  -0.05077846  0.00584093  0.01826398       0.005
  -0.03046152  0.01758389  0.01825972       0.005
  -0.01014458  0.02932686  0.01825546       0.005
   0.01018283  0.06453762  0.01824680       0.005
   0.03049977  0.07628059  0.01824254       0.005
   0.05081671  0.08802355  0.01823828       0.005
   0.07113365  0.09976652  0.01823402       0.005
  -0.07108493  0.01756576  0.01826383       0.005
  -0.05076799  0.02930873  0.01825958       0.005
  -0.03045105  0.04105169  0.01825532       0.005
  -0.01013411  0.05279466  0.01825106       0.005
   0.01019329  0.08800542  0.01824240       0.005
   0.03051023  0.09974839  0.01823814       0.005
   0.05082717  0.11149135  0.01823388       0.005
   0.07114411  0.12323432  0.01822962       0.005
  -0.07107447  0.04103356  0.01825943       0.005
  -0.05075753  0.05277653  0.01825517       0.005
  -0.03044059  0.06451949  0.01825092       0.005
  -0.01012365  0.07626246  0.01824666       0.005
   0.01012002 -0.07626918  0.01827321       0.005
   0.03043696 -0.06452622  0.01826895       0.005
   0.05075390 -0.05278325  0.01826469       0.005
   0.07107084 -0.04104029  0.01826043       0.005
  -0.07114774 -0.12324104  0.01829025       0.005
  -0.05083080 -0.11149807  0.01828599       0.005
  -0.03051386 -0.09975511  0.01828173       0.005
  -0.01019692 -0.08801215  0.01827747       0.005
   0.01013049 -0.05280138  0.01826881       0.005
   0.03044743 -0.04105842  0.01826455       0.005
   0.05076437 -0.02931545  0.01826029       0.005
   0.07108131 -0.01757249  0.01825603       0.005
  -0.07113727 -0.09977324  0.01828584       0.005
  -0.05082033 -0.08803027  0.01828159       0.005
  -0.03050339 -0.07628731  0.01827733       0.005
  -0.01018645 -0.06454435  0.01827307       0.005
   0.01014095 -0.02933358  0.01826441       0.005
   0.03045789 -0.01759062  0.01826015       0.005
   0.05077483 -0.00584765  0.01825589       0.005
   0.07109177  0.00589531  0.01825163       0.005
  -0.07112681 -0.07630544  0.01828144       0.005
  -0.05080987 -0.06456247  0.01827718       0.005
  -0.03049293 -0.05281951  0.01827292       0.005
  -0.01017599 -0.04107654  0.01826867       0.005
   0.01015142 -0.00586578  0.01826001       0.005
   0.03046836  0.00587719  0.01825575       0.005
   0.05078530  0.01762015  0.01825149       0.005
   0.07110224  0.02936311  0.01824723       0.005
  -0.07111634 -0.05283764  0.01827704       0.005
  -0.05079940 -0.04109467  0.01827278       0.005
  -0.03048246 -0.02935171  0.01826852       0.005
  -0.01016552 -0.01760874  0.01826426       0.005
 
 k-points in reciprocal lattice and weights: Automatic mesh                          
   0.06250000  0.06250000  0.08333333       0.005
   0.18750000  0.06250000  0.08333333       0.005
   0.31250000  0.06250000  0.08333333       0.005
   0.43750000  0.06250000  0.08333333       0.005
  -0.43750000  0.06250000  0.08333333       0.005
  -0.31250000  0.06250000  0.08333333       0.005
  -0.18750000  0.06250000  0.08333333       0.005
  -0.06250000  0.06250000  0.08333333       0.005
   0.06250000  0.18750000  0.08333333       0.005
   0.18750000  0.18750000  0.08333333       0.005
   0.31250000  0.18750000  0.08333333       0.005
   0.43750000  0.18750000  0.08333333       0.005
  -0.43750000  0.18750000  0.08333333       0.005
  -0.31250000  0.18750000  0.08333333       0.005
  -0.18750000  0.18750000  0.08333333       0.005
  -0.06250000  0.18750000  0.08333333       0.005
   0.06250000  0.31250000  0.08333333       0.005
   0.18750000  0.31250000  0.08333333       0.005
   0.31250000  0.31250000  0.08333333       0.005
   0.43750000  0.31250000  0.08333333       0.005
  -0.43750000  0.31250000  0.08333333       0.005
  -0.31250000  0.31250000  0.08333333       0.005
  -0.18750000  0.31250000  0.08333333       0.005
  -0.06250000  0.31250000  0.08333333       0.005
   0.06250000  0.43750000  0.08333333       0.005
   0.18750000  0.43750000  0.08333333       0.005
   0.31250000  0.43750000  0.08333333       0.005
   0.43750000  0.43750000  0.08333333       0.005
  -0.43750000  0.43750000  0.08333333       0.005
  -0.31250000  0.43750000  0.08333333       0.005
  -0.18750000  0.43750000  0.08333333       0.005
  -0.06250000  0.43750000  0.08333333       0.005
   0.06250000 -0.43750000  0.08333333       0.005
   0.18750000 -0.43750000  0.08333333       0.005
   0.31250000 -0.43750000  0.08333333       0.005
   0.43750000 -0.43750000  0.08333333       0.005
  -0.43750000 -0.43750000  0.08333333       0.005
  -0.31250000 -0.43750000  0.08333333       0.005
  -0.18750000 -0.43750000  0.08333333       0.005
  -0.06250000 -0.43750000  0.08333333       0.005
   0.06250000 -0.31250000  0.08333333       0.005
   0.18750000 -0.31250000  0.08333333       0.005
   0.31250000 -0.31250000  0.08333333       0.005
   0.43750000 -0.31250000  0.08333333       0.005
  -0.43750000 -0.31250000  0.08333333       0.005
  -0.31250000 -0.31250000  0.08333333       0.005
  -0.18750000 -0.31250000  0.08333333       0.005
  -0.06250000 -0.31250000  0.08333333       0.005
   0.06250000 -0.18750000  0.08333333       0.005
   0.18750000 -0.18750000  0.08333333       0.005
   0.31250000 -0.18750000  0.08333333       0.005
   0.43750000 -0.18750000  0.08333333       0.005
  -0.43750000 -0.18750000  0.08333333       0.005
  -0.31250000 -0.18750000  0.08333333       0.005
  -0.18750000 -0.18750000  0.08333333       0.005
  -0.06250000 -0.18750000  0.08333333       0.005
   0.06250000 -0.06250000  0.08333333       0.005
   0.18750000 -0.06250000  0.08333333       0.005
   0.31250000 -0.06250000  0.08333333       0.005
   0.43750000 -0.06250000  0.08333333       0.005
  -0.43750000 -0.06250000  0.08333333       0.005
  -0.31250000 -0.06250000  0.08333333       0.005
  -0.18750000 -0.06250000  0.08333333       0.005
  -0.06250000 -0.06250000  0.08333333       0.005
   0.06250000  0.06250000  0.25000000       0.005
   0.18750000  0.06250000  0.25000000       0.005
   0.31250000  0.06250000  0.25000000       0.005
   0.43750000  0.06250000  0.25000000       0.005
  -0.43750000  0.06250000  0.25000000       0.005
  -0.31250000  0.06250000  0.25000000       0.005
  -0.18750000  0.06250000  0.25000000       0.005
  -0.06250000  0.06250000  0.25000000       0.005
   0.06250000  0.18750000  0.25000000       0.005
   0.18750000  0.18750000  0.25000000       0.005
   0.31250000  0.18750000  0.25000000       0.005
   0.43750000  0.18750000  0.25000000       0.005
  -0.43750000  0.18750000  0.25000000       0.005
  -0.31250000  0.18750000  0.25000000       0.005
  -0.18750000  0.18750000  0.25000000       0.005
  -0.06250000  0.18750000  0.25000000       0.005
   0.06250000  0.31250000  0.25000000       0.005
   0.18750000  0.31250000  0.25000000       0.005
   0.31250000  0.31250000  0.25000000       0.005
   0.43750000  0.31250000  0.25000000       0.005
  -0.43750000  0.31250000  0.25000000       0.005
  -0.31250000  0.31250000  0.25000000       0.005
  -0.18750000  0.31250000  0.25000000       0.005
  -0.06250000  0.31250000  0.25000000       0.005
   0.06250000  0.43750000  0.25000000       0.005
   0.18750000  0.43750000  0.25000000       0.005
   0.31250000  0.43750000  0.25000000       0.005
   0.43750000  0.43750000  0.25000000       0.005
  -0.43750000  0.43750000  0.25000000       0.005
  -0.31250000  0.43750000  0.25000000       0.005
  -0.18750000  0.43750000  0.25000000       0.005
  -0.06250000  0.43750000  0.25000000       0.005
   0.06250000 -0.43750000  0.25000000       0.005
   0.18750000 -0.43750000  0.25000000       0.005
   0.31250000 -0.43750000  0.25000000       0.005
   0.43750000 -0.43750000  0.25000000       0.005
  -0.43750000 -0.43750000  0.25000000       0.005
  -0.31250000 -0.43750000  0.25000000       0.005
  -0.18750000 -0.43750000  0.25000000       0.005
  -0.06250000 -0.43750000  0.25000000       0.005
   0.06250000 -0.31250000  0.25000000       0.005
   0.18750000 -0.31250000  0.25000000       0.005
   0.31250000 -0.31250000  0.25000000       0.005
   0.43750000 -0.31250000  0.25000000       0.005
  -0.43750000 -0.31250000  0.25000000       0.005
  -0.31250000 -0.31250000  0.25000000       0.005
  -0.18750000 -0.31250000  0.25000000       0.005
  -0.06250000 -0.31250000  0.25000000       0.005
   0.06250000 -0.18750000  0.25000000       0.005
   0.18750000 -0.18750000  0.25000000       0.005
   0.31250000 -0.18750000  0.25000000       0.005
   0.43750000 -0.18750000  0.25000000       0.005
  -0.43750000 -0.18750000  0.25000000       0.005
  -0.31250000 -0.18750000  0.25000000       0.005
  -0.18750000 -0.18750000  0.25000000       0.005
  -0.06250000 -0.18750000  0.25000000       0.005
   0.06250000 -0.06250000  0.25000000       0.005
   0.18750000 -0.06250000  0.25000000       0.005
   0.31250000 -0.06250000  0.25000000       0.005
   0.43750000 -0.06250000  0.25000000       0.005
  -0.43750000 -0.06250000  0.25000000       0.005
  -0.31250000 -0.06250000  0.25000000       0.005
  -0.18750000 -0.06250000  0.25000000       0.005
  -0.06250000 -0.06250000  0.25000000       0.005
   0.06250000  0.06250000  0.41666667       0.005
   0.18750000  0.06250000  0.41666667       0.005
   0.31250000  0.06250000  0.41666667       0.005
   0.43750000  0.06250000  0.41666667       0.005
  -0.43750000  0.06250000  0.41666667       0.005
  -0.31250000  0.06250000  0.41666667       0.005
  -0.18750000  0.06250000  0.41666667       0.005
  -0.06250000  0.06250000  0.41666667       0.005
   0.06250000  0.18750000  0.41666667       0.005
   0.18750000  0.18750000  0.41666667       0.005
   0.31250000  0.18750000  0.41666667       0.005
   0.43750000  0.18750000  0.41666667       0.005
  -0.43750000  0.18750000  0.41666667       0.005
  -0.31250000  0.18750000  0.41666667       0.005
  -0.18750000  0.18750000  0.41666667       0.005
  -0.06250000  0.18750000  0.41666667       0.005
   0.06250000  0.31250000  0.41666667       0.005
   0.18750000  0.31250000  0.41666667       0.005
   0.31250000  0.31250000  0.41666667       0.005
   0.43750000  0.31250000  0.41666667       0.005
  -0.43750000  0.31250000  0.41666667       0.005
  -0.31250000  0.31250000  0.41666667       0.005
  -0.18750000  0.31250000  0.41666667       0.005
  -0.06250000  0.31250000  0.41666667       0.005
   0.06250000  0.43750000  0.41666667       0.005
   0.18750000  0.43750000  0.41666667       0.005
   0.31250000  0.43750000  0.41666667       0.005
   0.43750000  0.43750000  0.41666667       0.005
  -0.43750000  0.43750000  0.41666667       0.005
  -0.31250000  0.43750000  0.41666667       0.005
  -0.18750000  0.43750000  0.41666667       0.005
  -0.06250000  0.43750000  0.41666667       0.005
   0.06250000 -0.43750000  0.41666667       0.005
   0.18750000 -0.43750000  0.41666667       0.005
   0.31250000 -0.43750000  0.41666667       0.005
   0.43750000 -0.43750000  0.41666667       0.005
  -0.43750000 -0.43750000  0.41666667       0.005
  -0.31250000 -0.43750000  0.41666667       0.005
  -0.18750000 -0.43750000  0.41666667       0.005
  -0.06250000 -0.43750000  0.41666667       0.005
   0.06250000 -0.31250000  0.41666667       0.005
   0.18750000 -0.31250000  0.41666667       0.005
   0.31250000 -0.31250000  0.41666667       0.005
   0.43750000 -0.31250000  0.41666667       0.005
  -0.43750000 -0.31250000  0.41666667       0.005
  -0.31250000 -0.31250000  0.41666667       0.005
  -0.18750000 -0.31250000  0.41666667       0.005
  -0.06250000 -0.31250000  0.41666667       0.005
   0.06250000 -0.18750000  0.41666667       0.005
   0.18750000 -0.18750000  0.41666667       0.005
   0.31250000 -0.18750000  0.41666667       0.005
   0.43750000 -0.18750000  0.41666667       0.005
  -0.43750000 -0.18750000  0.41666667       0.005
  -0.31250000 -0.18750000  0.41666667       0.005
  -0.18750000 -0.18750000  0.41666667       0.005
  -0.06250000 -0.18750000  0.41666667       0.005
   0.06250000 -0.06250000  0.41666667       0.005
   0.18750000 -0.06250000  0.41666667       0.005
   0.31250000 -0.06250000  0.41666667       0.005
   0.43750000 -0.06250000  0.41666667       0.005
  -0.43750000 -0.06250000  0.41666667       0.005
  -0.31250000 -0.06250000  0.41666667       0.005
  -0.18750000 -0.06250000  0.41666667       0.005
  -0.06250000 -0.06250000  0.41666667       0.005
 
 position of ions in fractional coordinates (direct lattice) 
   0.66673659  0.33327152  0.50000103
   0.99993200  0.00005715  0.49999678
   0.33303677  0.02431524  0.55991412
   0.97615759  0.30949873  0.55971000
   0.69101020  0.66638828  0.55992133
   0.69052433  0.02381943  0.44029028
   0.33361264  0.30901660  0.44008514
   0.97565723  0.66696118  0.44007979
 
 position of ions in cartesian coordinates  (Angst):
   3.07802737  1.77592029 11.40997144
   6.15464853 -0.00030084 11.40985301
   1.97595415  0.13102893 12.77669369
   5.05557573  1.64866927 12.77262120
   2.20174096  3.55089654 12.77751016
   4.17721451  0.12689416 10.04725942
   1.10250590  1.64735251 10.04255288
   3.95144280  3.55265468 10.04306474
 


--------------------------------------------------------------------------------------------------------


 k-point     1 :   0.0625 0.0625 0.0833  plane waves:   20160
 k-point     2 :   0.1875 0.0625 0.0833  plane waves:   20185
 k-point     3 :   0.3125 0.0625 0.0833  plane waves:   20146
 k-point     4 :   0.4375 0.0625 0.0833  plane waves:   20112
 k-point     5 :  -0.4375 0.0625 0.0833  plane waves:   20121
 k-point     6 :  -0.3125 0.0625 0.0833  plane waves:   20166
 k-point     7 :  -0.1875 0.0625 0.0833  plane waves:   20177
 k-point     8 :  -0.0625 0.0625 0.0833  plane waves:   20172
 k-point     9 :   0.0625 0.1875 0.0833  plane waves:   20187
 k-point    10 :   0.1875 0.1875 0.0833  plane waves:   20154
 k-point    11 :   0.3125 0.1875 0.0833  plane waves:   20122
 k-point    12 :   0.4375 0.1875 0.0833  plane waves:   20099
 k-point    13 :  -0.4375 0.1875 0.0833  plane waves:   20117
 k-point    14 :  -0.3125 0.1875 0.0833  plane waves:   20150
 k-point    15 :  -0.1875 0.1875 0.0833  plane waves:   20180
 k-point    16 :  -0.0625 0.1875 0.0833  plane waves:   20176
 k-point    17 :   0.0625 0.3125 0.0833  plane waves:   20147
 k-point    18 :   0.1875 0.3125 0.0833  plane waves:   20123
 k-point    19 :   0.3125 0.3125 0.0833  plane waves:   20124
 k-point    20 :   0.4375 0.3125 0.0833  plane waves:   20130
 k-point    21 :  -0.4375 0.3125 0.0833  plane waves:   20136
 k-point    22 :  -0.3125 0.3125 0.0833  plane waves:   20161
 k-point    23 :  -0.1875 0.3125 0.0833  plane waves:   20147
 k-point    24 :  -0.0625 0.3125 0.0833  plane waves:   20162
 k-point    25 :   0.0625 0.4375 0.0833  plane waves:   20110
 k-point    26 :   0.1875 0.4375 0.0833  plane waves:   20100
 k-point    27 :   0.3125 0.4375 0.0833  plane waves:   20130
 k-point    28 :   0.4375 0.4375 0.0833  plane waves:   20098
 k-point    29 :  -0.4375 0.4375 0.0833  plane waves:   20116
 k-point    30 :  -0.3125 0.4375 0.0833  plane waves:   20131
 k-point    31 :  -0.1875 0.4375 0.0833  plane waves:   20119
 k-point    32 :  -0.0625 0.4375 0.0833  plane waves:   20122
 k-point    33 :   0.0625-0.4375 0.0833  plane waves:   20119
 k-point    34 :   0.1875-0.4375 0.0833  plane waves:   20118
 k-point    35 :   0.3125-0.4375 0.0833  plane waves:   20135
 k-point    36 :   0.4375-0.4375 0.0833  plane waves:   20117
 k-point    37 :  -0.4375-0.4375 0.0833  plane waves:   20097
 k-point    38 :  -0.3125-0.4375 0.0833  plane waves:   20129
 k-point    39 :  -0.1875-0.4375 0.0833  plane waves:   20099
 k-point    40 :  -0.0625-0.4375 0.0833  plane waves:   20115
 k-point    41 :   0.0625-0.3125 0.0833  plane waves:   20165
 k-point    42 :   0.1875-0.3125 0.0833  plane waves:   20149
 k-point    43 :   0.3125-0.3125 0.0833  plane waves:   20160
 k-point    44 :   0.4375-0.3125 0.0833  plane waves:   20131
 k-point    45 :  -0.4375-0.3125 0.0833  plane waves:   20128
 k-point    46 :  -0.3125-0.3125 0.0833  plane waves:   20118
 k-point    47 :  -0.1875-0.3125 0.0833  plane waves:   20127
 k-point    48 :  -0.0625-0.3125 0.0833  plane waves:   20142
 k-point    49 :   0.0625-0.1875 0.0833  plane waves:   20177
 k-point    50 :   0.1875-0.1875 0.0833  plane waves:   20179
 k-point    51 :   0.3125-0.1875 0.0833  plane waves:   20147
 k-point    52 :   0.4375-0.1875 0.0833  plane waves:   20120
 k-point    53 :  -0.4375-0.1875 0.0833  plane waves:   20098
 k-point    54 :  -0.3125-0.1875 0.0833  plane waves:   20127
 k-point    55 :  -0.1875-0.1875 0.0833  plane waves:   20153
 k-point    56 :  -0.0625-0.1875 0.0833  plane waves:   20190
 k-point    57 :   0.0625-0.0625 0.0833  plane waves:   20172
 k-point    58 :   0.1875-0.0625 0.0833  plane waves:   20177
 k-point    59 :   0.3125-0.0625 0.0833  plane waves:   20161
 k-point    60 :   0.4375-0.0625 0.0833  plane waves:   20123
 k-point    61 :  -0.4375-0.0625 0.0833  plane waves:   20113
 k-point    62 :  -0.3125-0.0625 0.0833  plane waves:   20143
 k-point    63 :  -0.1875-0.0625 0.0833  plane waves:   20190
 k-point    64 :  -0.0625-0.0625 0.0833  plane waves:   20157
 k-point    65 :   0.0625 0.0625 0.2500  plane waves:   20182
 k-point    66 :   0.1875 0.0625 0.2500  plane waves:   20167
 k-point    67 :   0.3125 0.0625 0.2500  plane waves:   20146
 k-point    68 :   0.4375 0.0625 0.2500  plane waves:   20111
 k-point    69 :  -0.4375 0.0625 0.2500  plane waves:   20116
 k-point    70 :  -0.3125 0.0625 0.2500  plane waves:   20164
 k-point    71 :  -0.1875 0.0625 0.2500  plane waves:   20187
 k-point    72 :  -0.0625 0.0625 0.2500  plane waves:   20189
 k-point    73 :   0.0625 0.1875 0.2500  plane waves:   20168
 k-point    74 :   0.1875 0.1875 0.2500  plane waves:   20153
 k-point    75 :   0.3125 0.1875 0.2500  plane waves:   20119
 k-point    76 :   0.4375 0.1875 0.2500  plane waves:   20106
 k-point    77 :  -0.4375 0.1875 0.2500  plane waves:   20139
 k-point    78 :  -0.3125 0.1875 0.2500  plane waves:   20156
 k-point    79 :  -0.1875 0.1875 0.2500  plane waves:   20170
 k-point    80 :  -0.0625 0.1875 0.2500  plane waves:   20181
 k-point    81 :   0.0625 0.3125 0.2500  plane waves:   20146
 k-point    82 :   0.1875 0.3125 0.2500  plane waves:   20120
 k-point    83 :   0.3125 0.3125 0.2500  plane waves:   20117
 k-point    84 :   0.4375 0.3125 0.2500  plane waves:   20110
 k-point    85 :  -0.4375 0.3125 0.2500  plane waves:   20126
 k-point    86 :  -0.3125 0.3125 0.2500  plane waves:   20141
 k-point    87 :  -0.1875 0.3125 0.2500  plane waves:   20155
 k-point    88 :  -0.0625 0.3125 0.2500  plane waves:   20168
 k-point    89 :   0.0625 0.4375 0.2500  plane waves:   20112
 k-point    90 :   0.1875 0.4375 0.2500  plane waves:   20108
 k-point    91 :   0.3125 0.4375 0.2500  plane waves:   20110
 k-point    92 :   0.4375 0.4375 0.2500  plane waves:   20110
 k-point    93 :  -0.4375 0.4375 0.2500  plane waves:   20106
 k-point    94 :  -0.3125 0.4375 0.2500  plane waves:   20127
 k-point    95 :  -0.1875 0.4375 0.2500  plane waves:   20135
 k-point    96 :  -0.0625 0.4375 0.2500  plane waves:   20118
 k-point    97 :   0.0625-0.4375 0.2500  plane waves:   20116
 k-point    98 :   0.1875-0.4375 0.2500  plane waves:   20138
 k-point    99 :   0.3125-0.4375 0.2500  plane waves:   20127
 k-point   100 :   0.4375-0.4375 0.2500  plane waves:   20106
 k-point   101 :  -0.4375-0.4375 0.2500  plane waves:   20111
 k-point   102 :  -0.3125-0.4375 0.2500  plane waves:   20103
 k-point   103 :  -0.1875-0.4375 0.2500  plane waves:   20107
 k-point   104 :  -0.0625-0.4375 0.2500  plane waves:   20113
 k-point   105 :   0.0625-0.3125 0.2500  plane waves:   20163
 k-point   106 :   0.1875-0.3125 0.2500  plane waves:   20155
 k-point   107 :   0.3125-0.3125 0.2500  plane waves:   20139
 k-point   108 :   0.4375-0.3125 0.2500  plane waves:   20128
 k-point   109 :  -0.4375-0.3125 0.2500  plane waves:   20104
 k-point   110 :  -0.3125-0.3125 0.2500  plane waves:   20116
 k-point   111 :  -0.1875-0.3125 0.2500  plane waves:   20121
 k-point   112 :  -0.0625-0.3125 0.2500  plane waves:   20148
 k-point   113 :   0.0625-0.1875 0.2500  plane waves:   20187
 k-point   114 :   0.1875-0.1875 0.2500  plane waves:   20170
 k-point   115 :   0.3125-0.1875 0.2500  plane waves:   20154
 k-point   116 :   0.4375-0.1875 0.2500  plane waves:   20135
 k-point   117 :  -0.4375-0.1875 0.2500  plane waves:   20107
 k-point   118 :  -0.3125-0.1875 0.2500  plane waves:   20119
 k-point   119 :  -0.1875-0.1875 0.2500  plane waves:   20154
 k-point   120 :  -0.0625-0.1875 0.2500  plane waves:   20173
 k-point   121 :   0.0625-0.0625 0.2500  plane waves:   20189
 k-point   122 :   0.1875-0.0625 0.2500  plane waves:   20182
 k-point   123 :   0.3125-0.0625 0.2500  plane waves:   20166
 k-point   124 :   0.4375-0.0625 0.2500  plane waves:   20119
 k-point   125 :  -0.4375-0.0625 0.2500  plane waves:   20113
 k-point   126 :  -0.3125-0.0625 0.2500  plane waves:   20148
 k-point   127 :  -0.1875-0.0625 0.2500  plane waves:   20173
 k-point   128 :  -0.0625-0.0625 0.2500  plane waves:   20187
 k-point   129 :   0.0625 0.0625 0.4167  plane waves:   20188
 k-point   130 :   0.1875 0.0625 0.4167  plane waves:   20174
 k-point   131 :   0.3125 0.0625 0.4167  plane waves:   20156
 k-point   132 :   0.4375 0.0625 0.4167  plane waves:   20117
 k-point   133 :  -0.4375 0.0625 0.4167  plane waves:   20099
 k-point   134 :  -0.3125 0.0625 0.4167  plane waves:   20153
 k-point   135 :  -0.1875 0.0625 0.4167  plane waves:   20185
 k-point   136 :  -0.0625 0.0625 0.4167  plane waves:   20208
 k-point   137 :   0.0625 0.1875 0.4167  plane waves:   20173
 k-point   138 :   0.1875 0.1875 0.4167  plane waves:   20165
 k-point   139 :   0.3125 0.1875 0.4167  plane waves:   20103
 k-point   140 :   0.4375 0.1875 0.4167  plane waves:   20111
 k-point   141 :  -0.4375 0.1875 0.4167  plane waves:   20132
 k-point   142 :  -0.3125 0.1875 0.4167  plane waves:   20158
 k-point   143 :  -0.1875 0.1875 0.4167  plane waves:   20161
 k-point   144 :  -0.0625 0.1875 0.4167  plane waves:   20186
 k-point   145 :   0.0625 0.3125 0.4167  plane waves:   20155
 k-point   146 :   0.1875 0.3125 0.4167  plane waves:   20104
 k-point   147 :   0.3125 0.3125 0.4167  plane waves:   20109
 k-point   148 :   0.4375 0.3125 0.4167  plane waves:   20088
 k-point   149 :  -0.4375 0.3125 0.4167  plane waves:   20113
 k-point   150 :  -0.3125 0.3125 0.4167  plane waves:   20155
 k-point   151 :  -0.1875 0.3125 0.4167  plane waves:   20163
 k-point   152 :  -0.0625 0.3125 0.4167  plane waves:   20153
 k-point   153 :   0.0625 0.4375 0.4167  plane waves:   20116
 k-point   154 :   0.1875 0.4375 0.4167  plane waves:   20111
 k-point   155 :   0.3125 0.4375 0.4167  plane waves:   20087
 k-point   156 :   0.4375 0.4375 0.4167  plane waves:   20101
 k-point   157 :  -0.4375 0.4375 0.4167  plane waves:   20107
 k-point   158 :  -0.3125 0.4375 0.4167  plane waves:   20113
 k-point   159 :  -0.1875 0.4375 0.4167  plane waves:   20129
 k-point   160 :  -0.0625 0.4375 0.4167  plane waves:   20102
 k-point   161 :   0.0625-0.4375 0.4167  plane waves:   20099
 k-point   162 :   0.1875-0.4375 0.4167  plane waves:   20131
 k-point   163 :   0.3125-0.4375 0.4167  plane waves:   20115
 k-point   164 :   0.4375-0.4375 0.4167  plane waves:   20106
 k-point   165 :  -0.4375-0.4375 0.4167  plane waves:   20096
 k-point   166 :  -0.3125-0.4375 0.4167  plane waves:   20095
 k-point   167 :  -0.1875-0.4375 0.4167  plane waves:   20115
 k-point   168 :  -0.0625-0.4375 0.4167  plane waves:   20109
 k-point   169 :   0.0625-0.3125 0.4167  plane waves:   20154
 k-point   170 :   0.1875-0.3125 0.4167  plane waves:   20160
 k-point   171 :   0.3125-0.3125 0.4167  plane waves:   20155
 k-point   172 :   0.4375-0.3125 0.4167  plane waves:   20113
 k-point   173 :  -0.4375-0.3125 0.4167  plane waves:   20095
 k-point   174 :  -0.3125-0.3125 0.4167  plane waves:   20106
 k-point   175 :  -0.1875-0.3125 0.4167  plane waves:   20105
 k-point   176 :  -0.0625-0.3125 0.4167  plane waves:   20146
 k-point   177 :   0.0625-0.1875 0.4167  plane waves:   20184
 k-point   178 :   0.1875-0.1875 0.4167  plane waves:   20161
 k-point   179 :   0.3125-0.1875 0.4167  plane waves:   20163
 k-point   180 :   0.4375-0.1875 0.4167  plane waves:   20130
 k-point   181 :  -0.4375-0.1875 0.4167  plane waves:   20115
 k-point   182 :  -0.3125-0.1875 0.4167  plane waves:   20104
 k-point   183 :  -0.1875-0.1875 0.4167  plane waves:   20163
 k-point   184 :  -0.0625-0.1875 0.4167  plane waves:   20169
 k-point   185 :   0.0625-0.0625 0.4167  plane waves:   20208
 k-point   186 :   0.1875-0.0625 0.4167  plane waves:   20187
 k-point   187 :   0.3125-0.0625 0.4167  plane waves:   20157
 k-point   188 :   0.4375-0.0625 0.4167  plane waves:   20102
 k-point   189 :  -0.4375-0.0625 0.4167  plane waves:   20108
 k-point   190 :  -0.3125-0.0625 0.4167  plane waves:   20147
 k-point   191 :  -0.1875-0.0625 0.4167  plane waves:   20167
 k-point   192 :  -0.0625-0.0625 0.4167  plane waves:   20190

 maximum and minimum number of plane-waves per node :     20208    20087

 maximum number of plane-waves:     20208
 maximum index in each direction: 
   IXMAX=   11   IYMAX=   11   IZMAX=   42
   IXMIN=  -11   IYMIN=  -11   IZMIN=  -42


 serial   3D FFT for wavefunctions
 parallel 3D FFT for charge:
    minimum data exchange during FFTs selected (reduces bandwidth)


 total amount of memory used by VASP MPI-rank0  1323724. kBytes
=======================================================================

   base                                    :      30000. kBytes
   nonl-proj                               :    1122003. kBytes
   fftplans                                :       4996. kBytes
   grid                                    :      41582. kBytes
   one-center                              :        248. kBytes
   wavefun                                 :     124895. kBytes
 
     INWAV:  cpu time      0.0001: real time      0.0001
 Broyden mixing: mesh for mixing (old mesh)
   NGX = 23   NGY = 23   NGZ = 85
  (NGX  = 96   NGY  = 96   NGZ  =360)
  gives a total of  44965 points

 initial charge density was supplied:
 charge density of overlapping atoms calculated
 number of electron      54.0000000 magnetization       9.6000000
 keeping initial charge density in first step


--------------------------------------------------------------------------------------------------------


