 vasp.6.5.1 10Mar25 (build Apr 08 2025 20:07:02) complex                        
  
 executed on             LinuxIFC date 2025.06.10  22:16:34
 running   42 mpi-ranks, on    1 nodes
 distrk:  each k-point on   42 cores,    1 groups
 distr:  one band on NCORE=   1 cores,   42 groups


--------------------------------------------------------------------------------------------------------


 INCAR:
   SYSTEM = CrCl3 Convergência
   PREC = Accurate
   ISMEAR = 0
   SIGMA = 0.05
   ENCUT = 400
   ISPIN = 2
   MAGMOM = 2*3.0 6*0.6
   EDIFF = 1E-6
   IBRION = -1
   NSW = 0
   LWAVE = .FALSE.
   LCHARG = .FALSE.

 POTCAR:    PAW_PBE Cr 06Sep2000                  
 POTCAR:    PAW_PBE Cl 06Sep2000                  
 -----------------------------------------------------------------------------
|                                                                             |
|           W    W    AA    RRRRR   N    N  II  N    N   GGGG   !!!           |
|           W    W   A  A   R    R  NN   N  II  NN   N  G    G  !!!           |
|           W    W  A    A  R    R  N N  N  II  N N  N  G       !!!           |
|           W WW W  AAAAAA  RRRRR   N  N N  II  N  N N  G  GGG   !            |
|           WW  WW  A    A  R   R   N   NN  II  N   NN  G    G                |
|           W    W  A    A  R    R  N    N  II  N    N   GGGG   !!!           |
|                                                                             |
|     For optimal performance we recommend to set                             |
|       NCORE = 2 up to number-of-cores-per-socket                            |
|     NCORE specifies how many cores store one orbital (NPAR=cpu/NCORE).      |
|     This setting can greatly improve the performance of VASP for DFT.       |
|     The default, NCORE=1 might be grossly inefficient on modern             |
|     multi-core architectures or massively parallel machines. Do your        |
|     own testing! More info at https://www.vasp.at/wiki/index.php/NCORE      |
|     Unfortunately you need to use the default for GW and RPA                |
|     calculations (for HF NCORE is supported but not extensively tested      |
|     yet).                                                                   |
|                                                                             |
 -----------------------------------------------------------------------------

 POTCAR:    PAW_PBE Cr 06Sep2000                  
   SHA256 =  56e7271fac8042f322b235801e26979132a24da65eb043fa6a03029023cb2fcc Cr/POTCAR             
   COPYR  = (c) Copyright 06Sep2000 Georg Kresse                                                    
   COPYR  = This file is part of the software VASP. Any use, copying, and all other rights are regul
   COPYR  = If you do not have a valid VASP license, you may not use, copy or distribute this file. 
   VRHFIN =Cr : d5 s1                                                                               
   LEXCH  = PE                                                                                      
   EATOM  =   276.8859 eV,   20.3505 Ry                                                             
                                                                                                    
   TITEL  = PAW_PBE Cr 06Sep2000                                                                    
   LULTRA =        F    use ultrasoft PP ?                                                          
   IUNSCR =        1    unscreen: 0-lin 1-nonlin 2-no                                               
   RPACOR =    2.080    partial core radius                                                         
   POMASS =   51.996; ZVAL   =    6.000    mass and valenz                                          
   RCORE  =    2.500    outmost cutoff radius                                                       
   RWIGS  =    2.500; RWIGS  =    1.323    wigner-seitz radius (au A)                               
   ENMAX  =  227.080; ENMIN  =  170.310 eV                                                          
   RCLOC  =    1.721    cutoff for local pot                                                        
   LCOR   =        T    correct aug charges                                                         
   LPAW   =        T    paw PP                                                                      
   EAUG   =  402.108                                                                                
   DEXC   =    0.000                                                                                
   RMAX   =    2.552    core radius for proj-oper                                                   
   RAUG   =    1.300    factor for augmentation sphere                                              
   RDEP   =    2.609    radius for radial grids                                                     
   RDEPT  =    2.065    core radius for aug-charge                                                  
                                                                                                    
   Atomic configuration                                                                             
    9 entries                                                                                       
     n  l   j            E        occ.                                                              
     1  0  0.50     -5880.4963   2.0000                                                             
     2  0  0.50      -667.0865   2.0000                                                             
     2  1  1.50      -560.6250   6.0000                                                             
     3  0  0.50       -73.9860   2.0000                                                             
     3  1  1.50       -45.4378   6.0000                                                             
     3  2  2.50        -2.9137   5.0000                                                             
     4  0  0.50        -4.0071   1.0000                                                             
     4  1  0.50        -1.2789   0.0000                                                             
     4  3  2.50        -1.3606   0.0000                                                             
   Description                                                                                      
     l       E           TYP  RCUT    TYP  RCUT                                                     
     2     -2.9136677     23  2.500                                                                 
     2     -4.2742503     23  2.500                                                                 
     0     -4.0071322     23  2.500                                                                 
     0      9.4498801     23  2.500                                                                 
     1     -5.4423304     23  2.500                                                                 
     1     27.2116520     23  2.500                                                                 
  local pseudopotential read in
  partial core-charges read in
  partial kinetic energy density read in
  atomic valenz-charges read in
  non local Contribution for L=           2  read in
    real space projection operators read in
  non local Contribution for L=           2  read in
    real space projection operators read in
  non local Contribution for L=           0  read in
    real space projection operators read in
  non local Contribution for L=           0  read in
    real space projection operators read in
  non local Contribution for L=           1  read in
    real space projection operators read in
  non local Contribution for L=           1  read in
    real space projection operators read in
    PAW grid and wavefunctions read in
 
   number of l-projection  operators is LMAX  =           6
   number of lm-projection operators is LMMAX =          18
 
 POTCAR:    PAW_PBE Cl 06Sep2000                  
   SHA256 =  9f1b6e6ed4247ac726a768b330d26d7667cc3c95a39ff49c1d064c2d9dcce931 Cl/POTCAR             
   COPYR  = (c) Copyright 06Sep2000 Georg Kresse                                                    
   COPYR  = This file is part of the software VASP. Any use, copying, and all other rights are regul
   COPYR  = If you do not have a valid VASP license, you may not use, copy or distribute this file. 
   VRHFIN =Cl: s2p5                                                                                 
   LEXCH  = PE                                                                                      
   EATOM  =   409.7259 eV,   30.1140 Ry                                                             
                                                                                                    
   TITEL  = PAW_PBE Cl 06Sep2000                                                                    
   LULTRA =        F    use ultrasoft PP ?                                                          
   IUNSCR =        1    unscreen: 0-lin 1-nonlin 2-no                                               
   RPACOR =    1.500    partial core radius                                                         
   POMASS =   35.453; ZVAL   =    7.000    mass and valenz                                          
   RCORE  =    1.900    outmost cutoff radius                                                       
   RWIGS  =    2.100; RWIGS  =    1.111    wigner-seitz radius (au A)                               
   ENMAX  =  262.472; ENMIN  =  196.854 eV                                                          
   ICORE  =        2    local potential                                                             
   LCOR   =        T    correct aug charges                                                         
   LPAW   =        T    paw PP                                                                      
   EAUG   =  356.192                                                                                
   DEXC   =    0.000                                                                                
   RMAX   =    1.945    core radius for proj-oper                                                   
   RAUG   =    1.300    factor for augmentation sphere                                              
   RDEP   =    2.020    radius for radial grids                                                     
   RDEPT  =    1.678    core radius for aug-charge                                                  
                                                                                                    
   Atomic configuration                                                                             
    6 entries                                                                                       
     n  l   j            E        occ.                                                              
     1  0  0.50     -2751.1850   2.0000                                                             
     2  0  0.50      -252.6861   2.0000                                                             
     2  1  1.50      -191.6157   6.0000                                                             
     3  0  0.50       -20.6916   2.0000                                                             
     3  1  0.50        -8.5949   5.0000                                                             
     3  2  1.50        -8.1635   0.0000                                                             
   Description                                                                                      
     l       E           TYP  RCUT    TYP  RCUT                                                     
     0    -20.6915656     23  1.900                                                                 
     0    -22.0521482     23  1.900                                                                 
     1     -8.5948577     23  1.900                                                                 
     1     -5.3847331     23  1.900                                                                 
     2     -8.1634956     23  1.900                                                                 
  local pseudopotential read in
  partial core-charges read in
  partial kinetic energy density read in
  atomic valenz-charges read in
  non local Contribution for L=           0  read in
    real space projection operators read in
  non local Contribution for L=           0  read in
    real space projection operators read in
  non local Contribution for L=           1  read in
    real space projection operators read in
  non local Contribution for L=           1  read in
    real space projection operators read in
    PAW grid and wavefunctions read in
 
   number of l-projection  operators is LMAX  =           4
   number of lm-projection operators is LMMAX =           8
 
  PAW_PBE Cr 06Sep2000                  :
 energy of atom  1       EATOM= -276.8859
 kinetic energy error for atom=    0.0018 (will be added to EATOM!!)
  PAW_PBE Cl 06Sep2000                  :
 energy of atom  2       EATOM= -409.7259
 kinetic energy error for atom=    0.0089 (will be added to EATOM!!)
 
 
 POSCAR: 
 -----------------------------------------------------------------------------
|                                                                             |
|           W    W    AA    RRRRR   N    N  II  N    N   GGGG   !!!           |
|           W    W   A  A   R    R  NN   N  II  NN   N  G    G  !!!           |
|           W    W  A    A  R    R  N N  N  II  N N  N  G       !!!           |
|           W WW W  AAAAAA  RRRRR   N  N N  II  N  N N  G  GGG   !            |
|           WW  WW  A    A  R   R   N   NN  II  N   NN  G    G                |
|           W    W  A    A  R    R  N    N  II  N    N   GGGG   !!!           |
|                                                                             |
|     Inconsistent Bravais lattice types found for crystalline and            |
|     reciprocal lattice:                                                     |
|                                                                             |
|        Crystalline: base-centered monoclinic                                |
|        Reciprocal : triclinic                                               |
|                    (instead of base-centered monoclinic)                    |
|                                                                             |
|     In most cases this is due to inaccuracies in the specification of       |
|     the crytalline lattice vectors.                                         |
|                                                                             |
|     Suggested SOLUTIONS:                                                    |
|      ) Refine the lattice parameters of your structure,                     |
|      ) and/or try changing SYMPREC.                                         |
|                                                                             |
 -----------------------------------------------------------------------------

  positions in cartesian coordinates
  No initial velocities read in


 exchange-correlation table for PE
   RHO(1)=    0.500       N(1)  =     2000
   RHO(2)=  100.500       N(2)  =     4000
 


--------------------------------------------------------------------------------------------------------


 ion  position               nearest neighbor table
   1  0.667  0.333  0.500-   4 2.40   6 2.41   8 2.41   3 2.41   5 2.41   7 2.41
   2  1.000  0.000  0.500-   6 2.40   4 2.41   7 2.41   8 2.41   5 2.41   3 2.41
   3  0.333  0.024  0.560-   1 2.41   2 2.41
   4  0.976  0.309  0.560-   1 2.40   2 2.41
   5  0.691  0.666  0.560-   2 2.41   1 2.41
   6  0.691  0.024  0.440-   2 2.40   1 2.41
   7  0.334  0.309  0.440-   2 2.41   1 2.41
   8  0.976  0.667  0.440-   2 2.41   1 2.41
 
  LATTYP: Found a base centered monoclinic cell.
 ALAT       =    46.0522173584
 B/A-ratio  =     0.2315140720
 C/A-ratio  =     0.4954947411
 COS(beta)  =    -0.9910458493
  
  Lattice vectors:
  
 A1 = (  -6.1563980000,  -0.0015340000, -22.8192420000)
 A2 = (   3.0771110000,  -5.3321000000, -22.8193060000)
 A3 = (   0.0023100000,   0.0042790000,  22.8186310000)


Analysis of symmetry for initial positions (statically):
=====================================================================
 Subroutine PRICEL returns:
 Original cell was already a primitive cell.
 

 Routine SETGRP: Setting up the symmetry group for a 
 base centered monoclinic supercell.


 Subroutine GETGRP returns: Found  1 space group operations
 (whereof  1 operations were pure point group operations)
 out of a pool of  4 trial point group operations.


The static configuration has the point symmetry C_1 .


Analysis of symmetry for dynamics (positions and initial velocities):
=====================================================================
 Subroutine PRICEL returns:
 Original cell was already a primitive cell.
 

 Routine SETGRP: Setting up the symmetry group for a 
 base centered monoclinic supercell.


 Subroutine GETGRP returns: Found  1 space group operations
 (whereof  1 operations were pure point group operations)
 out of a pool of  4 trial point group operations.


The dynamic configuration has the point symmetry C_1 .


Analysis of structural, dynamic, and magnetic symmetry:
=====================================================================
 Subroutine PRICEL returns:
 Original cell was already a primitive cell.
 

 Routine SETGRP: Setting up the symmetry group for a 
 base centered monoclinic supercell.


 Subroutine GETGRP returns: Found  1 space group operations
 (whereof  1 operations were pure point group operations)
 out of a pool of  4 trial point group operations.


The overall configuration has the point symmetry C_1 .


 Subroutine INISYM returns: Found  1 space group operations
 (whereof  1 operations are pure point group operations),
 and found     1 'primitive' translations


----------------------------------------------------------------------------------------

                                     Primitive cell                                     

  volume of cell :     747.9816

  direct lattice vectors                    reciprocal lattice vectors
     6.154088000 -0.002745000  0.000611000     0.162535521  0.093943719 -0.000034071
    -3.079421000  5.327821000  0.000675000     0.000083745  0.187742402 -0.000035214
     0.002310000  0.004279000 22.818631000    -0.000004355 -0.000008069  0.043823840

  length of vectors
     6.154088643  6.153739575 22.818631518     0.187731774  0.187742424  0.043823841

  position of ions in fractional coordinates (direct lattice)
     0.666736594  0.333271515  0.500001034
     0.999932001  0.000057150  0.499996780
     0.333036773  0.024315239  0.559914124
     0.976157585  0.309498728  0.559709996
     0.691010203  0.666388278  0.559921327
     0.690524329  0.023819428  0.440290280
     0.333612637  0.309016604  0.440085142
     0.975657232  0.666961176  0.440079793

  ion indices of the primitive-cell ions
   primitive index   ion index
                 1           1
                 2           2
                 3           3
                 4           4
                 5           5
                 6           6
                 7           7
                 8           8

----------------------------------------------------------------------------------------

 
 
 KPOINTS: Automatic mesh                          

Automatic generation of k-mesh.
 Grid dimensions read from file:
 generate k-points for:    6    6    4

 Generating k-lattice:

  Cartesian coordinates                     Fractional coordinates (reciprocal lattice)
     0.027089253  0.015657286 -0.000005678     0.166666667 -0.000000000  0.000000000
     0.000013958  0.031290400 -0.000005869     0.000000000  0.166666667  0.000000000
    -0.000001089 -0.000002017  0.010955960     0.000000000 -0.000000000  0.250000000

  Length of vectors
     0.031288629  0.031290404  0.010955960

  Shift w.r.t. Gamma in fractional coordinates (k-lattice)
     0.500000000  0.500000000  0.500000000

 
 Subroutine IBZKPT returns following result:
 ===========================================
 
 Found     72 irreducible k-points:
 
 Following reciprocal coordinates:
            Coordinates               Weight
  0.083333  0.083333  0.125000      2.000000
  0.250000  0.083333  0.125000      2.000000
  0.416667  0.083333  0.125000      2.000000
 -0.416667  0.083333  0.125000      2.000000
 -0.250000  0.083333  0.125000      2.000000
 -0.083333  0.083333  0.125000      2.000000
  0.083333  0.250000  0.125000      2.000000
  0.250000  0.250000  0.125000      2.000000
  0.416667  0.250000  0.125000      2.000000
 -0.416667  0.250000  0.125000      2.000000
 -0.250000  0.250000  0.125000      2.000000
 -0.083333  0.250000  0.125000      2.000000
  0.083333  0.416667  0.125000      2.000000
  0.250000  0.416667  0.125000      2.000000
  0.416667  0.416667  0.125000      2.000000
 -0.416667  0.416667  0.125000      2.000000
 -0.250000  0.416667  0.125000      2.000000
 -0.083333  0.416667  0.125000      2.000000
  0.083333 -0.416667  0.125000      2.000000
  0.250000 -0.416667  0.125000      2.000000
  0.416667 -0.416667  0.125000      2.000000
 -0.416667 -0.416667  0.125000      2.000000
 -0.250000 -0.416667  0.125000      2.000000
 -0.083333 -0.416667  0.125000      2.000000
  0.083333 -0.250000  0.125000      2.000000
  0.250000 -0.250000  0.125000      2.000000
  0.416667 -0.250000  0.125000      2.000000
 -0.416667 -0.250000  0.125000      2.000000
 -0.250000 -0.250000  0.125000      2.000000
 -0.083333 -0.250000  0.125000      2.000000
  0.083333 -0.083333  0.125000      2.000000
  0.250000 -0.083333  0.125000      2.000000
  0.416667 -0.083333  0.125000      2.000000
 -0.416667 -0.083333  0.125000      2.000000
 -0.250000 -0.083333  0.125000      2.000000
 -0.083333 -0.083333  0.125000      2.000000
  0.083333  0.083333  0.375000      2.000000
  0.250000  0.083333  0.375000      2.000000
  0.416667  0.083333  0.375000      2.000000
 -0.416667  0.083333  0.375000      2.000000
 -0.250000  0.083333  0.375000      2.000000
 -0.083333  0.083333  0.375000      2.000000
  0.083333  0.250000  0.375000      2.000000
  0.250000  0.250000  0.375000      2.000000
  0.416667  0.250000  0.375000      2.000000
 -0.416667  0.250000  0.375000      2.000000
 -0.250000  0.250000  0.375000      2.000000
 -0.083333  0.250000  0.375000      2.000000
  0.083333  0.416667  0.375000      2.000000
  0.250000  0.416667  0.375000      2.000000
  0.416667  0.416667  0.375000      2.000000
 -0.416667  0.416667  0.375000      2.000000
 -0.250000  0.416667  0.375000      2.000000
 -0.083333  0.416667  0.375000      2.000000
  0.083333 -0.416667  0.375000      2.000000
  0.250000 -0.416667  0.375000      2.000000
  0.416667 -0.416667  0.375000      2.000000
 -0.416667 -0.416667  0.375000      2.000000
 -0.250000 -0.416667  0.375000      2.000000
 -0.083333 -0.416667  0.375000      2.000000
  0.083333 -0.250000  0.375000      2.000000
  0.250000 -0.250000  0.375000      2.000000
  0.416667 -0.250000  0.375000      2.000000
 -0.416667 -0.250000  0.375000      2.000000
 -0.250000 -0.250000  0.375000      2.000000
 -0.083333 -0.250000  0.375000      2.000000
  0.083333 -0.083333  0.375000      2.000000
  0.250000 -0.083333  0.375000      2.000000
  0.416667 -0.083333  0.375000      2.000000
 -0.416667 -0.083333  0.375000      2.000000
 -0.250000 -0.083333  0.375000      2.000000
 -0.083333 -0.083333  0.375000      2.000000
 
 Following cartesian coordinates:
            Coordinates               Weight
  0.013551  0.023473  0.005472      2.000000
  0.040640  0.039130  0.005467      2.000000
  0.067730  0.054787  0.005461      2.000000
 -0.067717 -0.023499  0.005489      2.000000
 -0.040627 -0.007842  0.005484      2.000000
 -0.013538  0.007816  0.005478      2.000000
  0.013565  0.054763  0.005466      2.000000
  0.040654  0.070421  0.005461      2.000000
  0.067744  0.086078  0.005455      2.000000
 -0.067703  0.007791  0.005483      2.000000
 -0.040613  0.023449  0.005478      2.000000
 -0.013524  0.039106  0.005472      2.000000
  0.013579  0.086054  0.005460      2.000000
  0.040668  0.101711  0.005455      2.000000
  0.067757  0.117368  0.005449      2.000000
 -0.067689  0.039082  0.005478      2.000000
 -0.040600  0.054739  0.005472      2.000000
 -0.013510  0.070396  0.005466      2.000000
  0.013509 -0.070398  0.005490      2.000000
  0.040598 -0.054741  0.005484      2.000000
  0.067688 -0.039084  0.005478      2.000000
 -0.067759 -0.117370  0.005507      2.000000
 -0.040669 -0.101713  0.005501      2.000000
 -0.013580 -0.086056  0.005495      2.000000
  0.013523 -0.039108  0.005484      2.000000
  0.040612 -0.023451  0.005478      2.000000
  0.067702 -0.007793  0.005473      2.000000
 -0.067745 -0.086080  0.005501      2.000000
 -0.040655 -0.070423  0.005495      2.000000
 -0.013566 -0.054765  0.005490      2.000000
  0.013537 -0.007818  0.005478      2.000000
  0.040626  0.007840  0.005472      2.000000
  0.067716  0.023497  0.005467      2.000000
 -0.067731 -0.054789  0.005495      2.000000
 -0.040641 -0.039132  0.005489      2.000000
 -0.013552 -0.023475  0.005484      2.000000
  0.013550  0.023471  0.016428      2.000000
  0.040639  0.039128  0.016422      2.000000
  0.067728  0.054785  0.016417      2.000000
 -0.067718 -0.023501  0.016445      2.000000
 -0.040629 -0.007844  0.016440      2.000000
 -0.013539  0.007814  0.016434      2.000000
  0.013564  0.054761  0.016422      2.000000
  0.040653  0.070419  0.016417      2.000000
  0.067742  0.086076  0.016411      2.000000
 -0.067704  0.007789  0.016439      2.000000
 -0.040615  0.023447  0.016434      2.000000
 -0.013525  0.039104  0.016428      2.000000
  0.013578  0.086052  0.016416      2.000000
  0.040667  0.101709  0.016411      2.000000
  0.067756  0.117366  0.016405      2.000000
 -0.067690  0.039080  0.016433      2.000000
 -0.040601  0.054737  0.016428      2.000000
 -0.013511  0.070394  0.016422      2.000000
  0.013508 -0.070400  0.016446      2.000000
  0.040597 -0.054743  0.016440      2.000000
  0.067687 -0.039086  0.016434      2.000000
 -0.067760 -0.117372  0.016463      2.000000
 -0.040670 -0.101715  0.016457      2.000000
 -0.013581 -0.086058  0.016451      2.000000
  0.013522 -0.039110  0.016440      2.000000
  0.040611 -0.023453  0.016434      2.000000
  0.067701 -0.007795  0.016429      2.000000
 -0.067746 -0.086082  0.016457      2.000000
 -0.040656 -0.070425  0.016451      2.000000
 -0.013567 -0.054767  0.016446      2.000000
  0.013536 -0.007820  0.016434      2.000000
  0.040625  0.007838  0.016428      2.000000
  0.067715  0.023495  0.016423      2.000000
 -0.067732 -0.054791  0.016451      2.000000
 -0.040642 -0.039134  0.016445      2.000000
 -0.013553 -0.023477  0.016440      2.000000
 


--------------------------------------------------------------------------------------------------------




 Dimension of arrays:
   k-points           NKPTS =     72   k-points in BZ     NKDIM =     72   number of bands    NBANDS=     42
   number of dos      NEDOS =    301   number of ions     NIONS =      8
   non local maximal  LDIM  =      6   non local SUM 2l+1 LMDIM =     18
   total plane-waves  NPLWV = 240000
   max r-space proj   IRMAX =      1   max aug-charges    IRDMAX=  16589
   dimension x,y,z NGX =    40 NGY =   40 NGZ =  150
   dimension x,y,z NGXF=    80 NGYF=   80 NGZF=  300
   support grid    NGXF=    80 NGYF=   80 NGZF=  300
   ions per type =               2   6
   NGX,Y,Z   is equivalent  to a cutoff of  10.81, 10.81, 10.93 a.u.
   NGXF,Y,Z  is equivalent  to a cutoff of  21.61, 21.61, 21.86 a.u.

 SYSTEM =  CrCl3 Convergência                     
 POSCAR =                                          

 Startparameter for this run:
   NWRITE =      2    write-flag & timer
   PREC   = accura    normal or accurate (medium, high low for compatibility)
   ISTART =      0    job   : 0-new  1-cont  2-samecut
   ICHARG =      2    charge: 1-file 2-atom 10-const
   ISPIN  =      2    spin polarized calculation?
   LNONCOLLINEAR =      F non collinear calculations
   LSORBIT =      F    spin-orbit coupling
   INIWAV =      1    electr: 0-lowe 1-rand  2-diag
   LASPH  =      F    aspherical Exc in radial PAW
 Electronic Relaxation 1
   ENCUT  =  400.0 eV  29.40 Ry    5.42 a.u.  10.04 10.04 37.21*2*pi/ulx,y,z
   ENINI  =  400.0     initial cutoff
   ENAUG  =  402.1 eV  augmentation charge cutoff
   NELM   =     60;   NELMIN=  2; NELMDL= -5     # of ELM steps 
   EDIFF  = 0.1E-05   stopping-criterion for ELM
   LREAL  =      F    real-space projection
   NLSPLINE    = F    spline interpolate recip. space projectors
   LCOMPAT=      F    compatible to vasp.4.4
   GGA_COMPAT  = T    GGA compatible to vasp.4.4-vasp.4.6
   LMAXPAW     = -100 max onsite density
   LMAXMIX     =    2 max onsite mixed and CHGCAR
   VOSKOWN=      0    Vosko Wilk Nusair interpolation
   ROPT   =    0.00000   0.00000
 Ionic relaxation
   EDIFFG = 0.1E-04   stopping-criterion for IOM
   NSW    =      0    number of steps for IOM
   NBLOCK =      1;   KBLOCK =      1    inner block; outer block 
   IBRION =     -1    ionic relax: 0-MD 1-quasi-New 2-CG
   NFREE  =      0    steps in history (QN), initial steepest desc. (CG)
   ISIF   =      2    stress and relaxation
   IWAVPR =     10    prediction:  0-non 1-charg 2-wave 3-comb
   ISYM   =      2    0-nonsym 1-usesym 2-fastsym
   LCORR  =      T    Harris-Foulkes like correction to forces

   POTIM  = 0.5000    time-step for ionic-motion
   TEIN   =    0.0    initial temperature
   TEBEG  =    0.0;   TEEND  =   0.0 temperature during run
   SMASS  =  -3.00    Nose mass-parameter (am)
   estimated Nose-frequenzy (Omega)   =  0.10E-29 period in steps = 0.13E+47 mass=  -0.865E-27a.u.
   SCALEE = 1.0000    scale energy and forces
   NPACO  =    256;   APACO  = 10.0  distance and # of slots for P.C.
   PSTRESS=    0.0 pullay stress

  Mass of Ions in am
   POMASS =  52.00 35.45
  Ionic Valenz
   ZVAL   =   6.00  7.00
  Atomic Wigner-Seitz radii
   RWIGS  =  -1.00 -1.00
  virtual crystal weights 
   VCA    =   1.00  1.00
   NELECT =      54.0000    total number of electrons
   NUPDOWN=      -1.0000    fix difference up-down

 DOS related values:
   EMIN   =  10.00;   EMAX   =-10.00  energy-range for DOS
   EFERMI =   0.00;   METHOD = LEGACY      
   ISMEAR =     0;   SIGMA  =   0.05  broadening in eV -4-tet -1-fermi 0-gaus
   EFERMI_NEDOS =   21; number of points for ismear=-14 and -15

 Electronic relaxation 2 (details)
   IALGO  =     38    algorithm
   LDIAG  =      T    sub-space diagonalisation (order eigenvalues)
   LSUBROT=      F    optimize rotation matrix (better conditioning)
   LROBUST=      F    robust break criterion during scf (extrapolated energy error)
   ISEARCH=      0    line search for conjugate gradient (0, 1=use gradient)
   TURBO    =      0    0=normal 1=particle mesh
   IRESTART =      0    0=no restart 2=restart with 2 vectors
   NREBOOT  =      0    no. of reboots
   NMIN     =      0    reboot dimension
   EREF     =   0.00    reference energy to select bands
   IMIX   =      4    mixing-type and parameters
     AMIX     =   0.40;   BMIX     =  1.00
     AMIX_MAG =   1.60;   BMIX_MAG =  1.00
     AMIN     =   0.10
     WC   =   100.;   INIMIX=   1;  MIXPRE=   1;  MAXMIX= -45

 Intra band minimization:
   WEIMIN = 0.0000     energy-eigenvalue tresh-hold
   EBREAK =  0.60E-08  absolut break condition
   DEPER  =   0.30     relativ break condition  

   TIME   =   0.40     timestep for ELM

  volume/ion in A,a.u.               =      93.50       630.95
  Fermi-wavevector in a.u.,A,eV,Ry     =   0.681673  1.288174  6.322320  0.464677
  Thomas-Fermi vector in A             =   1.760523
 
 Write flags
   LWAVE        =      F    write WAVECAR
   LDOWNSAMPLE  =      F    k-point downsampling of WAVECAR
   LCHARG       =      F    write CHGCAR
   LVTOT        =      F    write LOCPOT, total local potential
   LVHAR        =      F    write LOCPOT, Hartree potential only
   WRT_POTENTIAL= false  ! write potential to hdf5 file
   LELF         =      F    write electronic localiz. function (ELF)
   LORBIT       =      0    0 simple, 1 ext, 2 COOP (PROOUT), +10 PAW based schemes


 Python interface
   PLUGINS active      =      F    recompile with -DPLUGINS to activate
 
 Dipole corrections
   LMONO      =      F    monopole corrections only (constant potential shift)
   LDIPOL     =      F    correct potential (dipole corrections)
   IDIPOL     =      0    1-x, 2-y, 3-z, 4-all directions 
   EPSILON    =  1.0000000 bulk dielectric constant
   LVACPOTAV  =      F  vacuum potentials using an averaging scheme for the charge density
   VACPOTFLAT =  0.1000000 required flatness to determine vacuum potential
 
Coulomb truncation method
  LTRUNCATE          =      F  Coulomb kernel truncation to be used

 
 Exchange correlation treatment:
   GGA     = PE    functional components
   XC_C    = 1    coefficients multiplying the functional components
   LIBXC   =     F    Libxc                    
   VOSKOWN =     0    Vosko Wilk Nusair interpolation
   LHFCALC =     F    Hartree Fock is set to
   LHFONE  =     F    Hartree Fock one center treatment
   AEXX    =    0.0000 exact exchange contribution

 Parameters of functionals:
   PE:
     No parameter
 
 Van der Waals corrections
   IVDW    =     0    specifies the selected vdW correction

 Linear response parameters
   LEPSILON=     F    determine dielectric tensor
   LRPA    =     F    only Hartree local field effects (RPA)
   LNABLA  =     F    use nabla operator in PAW spheres
   LVEL    =     F    velocity operator in full k-point grid
   CSHIFT  =0.1000    complex shift for real part using Kramers Kronig
   OMEGAMAX=  -1.0    maximum frequency
   DEG_THRESHOLD= 0.2000000E-02 threshold for treating states as degnerate
   RTIME   =   -0.100 relaxation time in fs
  (WPLASMAI=    0.000 imaginary part of plasma frequency in eV, 0.658/RTIME)
   DFIELD  = 0.0000000 0.0000000 0.0000000 field for delta impulse in time
 
  Optional k-point grid parameters
   LKPOINTS_OPT  =     F    use optional k-point grid
   KPOINTS_OPT_MODE=     1    mode for optional k-point grid
 
 Orbital magnetization related:
   ORBITALMAG=     F  switch on orbital magnetization
   LCHIMAG   =     F  perturbation theory with respect to B field
   DQ        =  0.001000  dq finite difference perturbation B field
   LLRAUG    =     F  two centre corrections for induced B field
   LBONE     =     F  B-component reconstruction in AE one-centre
   LVGVCALC  =     T  calculate vGv susceptibility
   LVGVAPPL  =     F  apply vGv susceptibility instead of pGv for G=0

 Random number generation:
   RANDOM_GENERATOR = DEFAULT
   PCG_SEED         = not used


--------------------------------------------------------------------------------------------------------


 Static calculation
 charge density and potential will be updated during run
 spin polarized calculation
 Variant of blocked Davidson
 Davidson routine will perform the subspace rotation
 perform sub-space diagonalisation
    after iterative eigenvector-optimisation
 modified Broyden-mixing scheme, WC =      100.0
 initial mixing is a Kerker type mixing with AMIX =  0.4000 and BMIX =      1.0000
 Hartree-type preconditioning will be used
 using additional bands           15
 reciprocal scheme for non local part
 use partial core corrections
 calculate Harris-corrections to forces 
   (improved forces if not selfconsistent)
 use gradient corrections 
 use of overlap-Matrix (Vanderbilt PP)
 Gauss-broadening in eV      SIGMA  =   0.05


--------------------------------------------------------------------------------------------------------


  energy-cutoff  :      400.00
  volume of cell :      747.98
      direct lattice vectors                 reciprocal lattice vectors
     6.154088000 -0.002745000  0.000611000     0.162535521  0.093943719 -0.000034071
    -3.079421000  5.327821000  0.000675000     0.000083745  0.187742402 -0.000035214
     0.002310000  0.004279000 22.818631000    -0.000004355 -0.000008069  0.043823840

  length of vectors
     6.154088643  6.153739575 22.818631518     0.187731774  0.187742424  0.043823841


 
 k-points in units of 2pi/SCALE and weight: Automatic mesh                          
   0.01355106  0.02347283  0.00547221       0.014
   0.04064031  0.03913012  0.00546653       0.014
   0.06772957  0.05478741  0.00546085       0.014
  -0.06771670 -0.02349902  0.00548924       0.014
  -0.04062745 -0.00784174  0.00548356       0.014
  -0.01353819  0.00781555  0.00547788       0.014
   0.01356502  0.05476324  0.00546634       0.014
   0.04065427  0.07042052  0.00546066       0.014
   0.06774353  0.08607781  0.00545498       0.014
  -0.06770274  0.00779138  0.00548337       0.014
  -0.04061349  0.02344866  0.00547769       0.014
  -0.01352423  0.03910595  0.00547202       0.014
   0.01357898  0.08605364  0.00546047       0.014
   0.04066823  0.10171092  0.00545479       0.014
   0.06775748  0.11736821  0.00544911       0.014
  -0.06768878  0.03908178  0.00547750       0.014
  -0.04059953  0.05473906  0.00547183       0.014
  -0.01351028  0.07039635  0.00546615       0.014
   0.01350919 -0.07039837  0.00548981       0.014
   0.04059844 -0.05474108  0.00548414       0.014
   0.06768770 -0.03908379  0.00547846       0.014
  -0.06775857 -0.11737023  0.00550685       0.014
  -0.04066932 -0.10171294  0.00550117       0.014
  -0.01358006 -0.08605565  0.00549549       0.014
   0.01352315 -0.03910797  0.00548394       0.014
   0.04061240 -0.02345068  0.00547827       0.014
   0.06770165 -0.00779339  0.00547259       0.014
  -0.06774461 -0.08607983  0.00550098       0.014
  -0.04065536 -0.07042254  0.00549530       0.014
  -0.01356611 -0.05476525  0.00548962       0.014
   0.01353710 -0.00781757  0.00547808       0.014
   0.04062636  0.00783972  0.00547240       0.014
   0.06771561  0.02349701  0.00546672       0.014
  -0.06773066 -0.05478942  0.00549511       0.014
  -0.04064140 -0.03913214  0.00548943       0.014
  -0.01355215 -0.02347485  0.00548375       0.014
   0.01354997  0.02347082  0.01642817       0.014
   0.04063923  0.03912810  0.01642249       0.014
   0.06772848  0.05478539  0.01641681       0.014
  -0.06771779 -0.02350104  0.01644520       0.014
  -0.04062853 -0.00784376  0.01643952       0.014
  -0.01353928  0.00781353  0.01643384       0.014
   0.01356393  0.05476122  0.01642230       0.014
   0.04065318  0.07041850  0.01641662       0.014
   0.06774244  0.08607579  0.01641094       0.014
  -0.06770383  0.00778936  0.01643933       0.014
  -0.04061458  0.02344664  0.01643365       0.014
  -0.01352532  0.03910393  0.01642798       0.014
   0.01357789  0.08605162  0.01641643       0.014
   0.04066714  0.10170890  0.01641075       0.014
   0.06775639  0.11736619  0.01640507       0.014
  -0.06768987  0.03907976  0.01643346       0.014
  -0.04060062  0.05473705  0.01642779       0.014
  -0.01351137  0.07039433  0.01642211       0.014
   0.01350810 -0.07040038  0.01644577       0.014
   0.04059735 -0.05474310  0.01644010       0.014
   0.06768661 -0.03908581  0.01643442       0.014
  -0.06775966 -0.11737224  0.01646281       0.014
  -0.04067041 -0.10171496  0.01645713       0.014
  -0.01358115 -0.08605767  0.01645145       0.014
   0.01352206 -0.03910998  0.01643990       0.014
   0.04061131 -0.02345270  0.01643423       0.014
   0.06770056 -0.00779541  0.01642855       0.014
  -0.06774570 -0.08608184  0.01645694       0.014
  -0.04065645 -0.07042456  0.01645126       0.014
  -0.01356720 -0.05476727  0.01644558       0.014
   0.01353601 -0.00781958  0.01643404       0.014
   0.04062527  0.00783770  0.01642836       0.014
   0.06771452  0.02349499  0.01642268       0.014
  -0.06773175 -0.05479144  0.01645107       0.014
  -0.04064249 -0.03913416  0.01644539       0.014
  -0.01355324 -0.02347687  0.01643971       0.014
 
 k-points in reciprocal lattice and weights: Automatic mesh                          
   0.08333333  0.08333333  0.12500000       0.014
   0.25000000  0.08333333  0.12500000       0.014
   0.41666667  0.08333333  0.12500000       0.014
  -0.41666667  0.08333333  0.12500000       0.014
  -0.25000000  0.08333333  0.12500000       0.014
  -0.08333333  0.08333333  0.12500000       0.014
   0.08333333  0.25000000  0.12500000       0.014
   0.25000000  0.25000000  0.12500000       0.014
   0.41666667  0.25000000  0.12500000       0.014
  -0.41666667  0.25000000  0.12500000       0.014
  -0.25000000  0.25000000  0.12500000       0.014
  -0.08333333  0.25000000  0.12500000       0.014
   0.08333333  0.41666667  0.12500000       0.014
   0.25000000  0.41666667  0.12500000       0.014
   0.41666667  0.41666667  0.12500000       0.014
  -0.41666667  0.41666667  0.12500000       0.014
  -0.25000000  0.41666667  0.12500000       0.014
  -0.08333333  0.41666667  0.12500000       0.014
   0.08333333 -0.41666667  0.12500000       0.014
   0.25000000 -0.41666667  0.12500000       0.014
   0.41666667 -0.41666667  0.12500000       0.014
  -0.41666667 -0.41666667  0.12500000       0.014
  -0.25000000 -0.41666667  0.12500000       0.014
  -0.08333333 -0.41666667  0.12500000       0.014
   0.08333333 -0.25000000  0.12500000       0.014
   0.25000000 -0.25000000  0.12500000       0.014
   0.41666667 -0.25000000  0.12500000       0.014
  -0.41666667 -0.25000000  0.12500000       0.014
  -0.25000000 -0.25000000  0.12500000       0.014
  -0.08333333 -0.25000000  0.12500000       0.014
   0.08333333 -0.08333333  0.12500000       0.014
   0.25000000 -0.08333333  0.12500000       0.014
   0.41666667 -0.08333333  0.12500000       0.014
  -0.41666667 -0.08333333  0.12500000       0.014
  -0.25000000 -0.08333333  0.12500000       0.014
  -0.08333333 -0.08333333  0.12500000       0.014
   0.08333333  0.08333333  0.37500000       0.014
   0.25000000  0.08333333  0.37500000       0.014
   0.41666667  0.08333333  0.37500000       0.014
  -0.41666667  0.08333333  0.37500000       0.014
  -0.25000000  0.08333333  0.37500000       0.014
  -0.08333333  0.08333333  0.37500000       0.014
   0.08333333  0.25000000  0.37500000       0.014
   0.25000000  0.25000000  0.37500000       0.014
   0.41666667  0.25000000  0.37500000       0.014
  -0.41666667  0.25000000  0.37500000       0.014
  -0.25000000  0.25000000  0.37500000       0.014
  -0.08333333  0.25000000  0.37500000       0.014
   0.08333333  0.41666667  0.37500000       0.014
   0.25000000  0.41666667  0.37500000       0.014
   0.41666667  0.41666667  0.37500000       0.014
  -0.41666667  0.41666667  0.37500000       0.014
  -0.25000000  0.41666667  0.37500000       0.014
  -0.08333333  0.41666667  0.37500000       0.014
   0.08333333 -0.41666667  0.37500000       0.014
   0.25000000 -0.41666667  0.37500000       0.014
   0.41666667 -0.41666667  0.37500000       0.014
  -0.41666667 -0.41666667  0.37500000       0.014
  -0.25000000 -0.41666667  0.37500000       0.014
  -0.08333333 -0.41666667  0.37500000       0.014
   0.08333333 -0.25000000  0.37500000       0.014
   0.25000000 -0.25000000  0.37500000       0.014
   0.41666667 -0.25000000  0.37500000       0.014
  -0.41666667 -0.25000000  0.37500000       0.014
  -0.25000000 -0.25000000  0.37500000       0.014
  -0.08333333 -0.25000000  0.37500000       0.014
   0.08333333 -0.08333333  0.37500000       0.014
   0.25000000 -0.08333333  0.37500000       0.014
   0.41666667 -0.08333333  0.37500000       0.014
  -0.41666667 -0.08333333  0.37500000       0.014
  -0.25000000 -0.08333333  0.37500000       0.014
  -0.08333333 -0.08333333  0.37500000       0.014
 
 position of ions in fractional coordinates (direct lattice) 
   0.66673659  0.33327152  0.50000103
   0.99993200  0.00005715  0.49999678
   0.33303677  0.02431524  0.55991412
   0.97615759  0.30949873  0.55971000
   0.69101020  0.66638828  0.55992133
   0.69052433  0.02381943  0.44029028
   0.33361264  0.30901660  0.44008514
   0.97565723  0.66696118  0.44007979
 
 position of ions in cartesian coordinates  (Angst):
   3.07802737  1.77592029 11.40997144
   6.15464853 -0.00030084 11.40985301
   1.97595415  0.13102893 12.77669369
   5.05557573  1.64866927 12.77262120
   2.20174096  3.55089654 12.77751016
   4.17721451  0.12689416 10.04725942
   1.10250590  1.64735251 10.04255288
   3.95144280  3.55265468 10.04306474
 


--------------------------------------------------------------------------------------------------------


 k-point     1 :   0.0833 0.0833 0.1250  plane waves:   13557
 k-point     2 :   0.2500 0.0833 0.1250  plane waves:   13579
 k-point     3 :   0.4167 0.0833 0.1250  plane waves:   13591
 k-point     4 :  -0.4167 0.0833 0.1250  plane waves:   13588
 k-point     5 :  -0.2500 0.0833 0.1250  plane waves:   13552
 k-point     6 :  -0.0833 0.0833 0.1250  plane waves:   13542
 k-point     7 :   0.0833 0.2500 0.1250  plane waves:   13579
 k-point     8 :   0.2500 0.2500 0.1250  plane waves:   13626
 k-point     9 :   0.4167 0.2500 0.1250  plane waves:   13619
 k-point    10 :  -0.4167 0.2500 0.1250  plane waves:   13611
 k-point    11 :  -0.2500 0.2500 0.1250  plane waves:   13557
 k-point    12 :  -0.0833 0.2500 0.1250  plane waves:   13555
 k-point    13 :   0.0833 0.4167 0.1250  plane waves:   13591
 k-point    14 :   0.2500 0.4167 0.1250  plane waves:   13619
 k-point    15 :   0.4167 0.4167 0.1250  plane waves:   13604
 k-point    16 :  -0.4167 0.4167 0.1250  plane waves:   13594
 k-point    17 :  -0.2500 0.4167 0.1250  plane waves:   13610
 k-point    18 :  -0.0833 0.4167 0.1250  plane waves:   13588
 k-point    19 :   0.0833-0.4167 0.1250  plane waves:   13589
 k-point    20 :   0.2500-0.4167 0.1250  plane waves:   13610
 k-point    21 :   0.4167-0.4167 0.1250  plane waves:   13594
 k-point    22 :  -0.4167-0.4167 0.1250  plane waves:   13599
 k-point    23 :  -0.2500-0.4167 0.1250  plane waves:   13615
 k-point    24 :  -0.0833-0.4167 0.1250  plane waves:   13594
 k-point    25 :   0.0833-0.2500 0.1250  plane waves:   13554
 k-point    26 :   0.2500-0.2500 0.1250  plane waves:   13556
 k-point    27 :   0.4167-0.2500 0.1250  plane waves:   13610
 k-point    28 :  -0.4167-0.2500 0.1250  plane waves:   13614
 k-point    29 :  -0.2500-0.2500 0.1250  plane waves:   13625
 k-point    30 :  -0.0833-0.2500 0.1250  plane waves:   13580
 k-point    31 :   0.0833-0.0833 0.1250  plane waves:   13542
 k-point    32 :   0.2500-0.0833 0.1250  plane waves:   13554
 k-point    33 :   0.4167-0.0833 0.1250  plane waves:   13589
 k-point    34 :  -0.4167-0.0833 0.1250  plane waves:   13597
 k-point    35 :  -0.2500-0.0833 0.1250  plane waves:   13580
 k-point    36 :  -0.0833-0.0833 0.1250  plane waves:   13556
 k-point    37 :   0.0833 0.0833 0.3750  plane waves:   13547
 k-point    38 :   0.2500 0.0833 0.3750  plane waves:   13585
 k-point    39 :   0.4167 0.0833 0.3750  plane waves:   13595
 k-point    40 :  -0.4167 0.0833 0.3750  plane waves:   13592
 k-point    41 :  -0.2500 0.0833 0.3750  plane waves:   13556
 k-point    42 :  -0.0833 0.0833 0.3750  plane waves:   13550
 k-point    43 :   0.0833 0.2500 0.3750  plane waves:   13585
 k-point    44 :   0.2500 0.2500 0.3750  plane waves:   13618
 k-point    45 :   0.4167 0.2500 0.3750  plane waves:   13633
 k-point    46 :  -0.4167 0.2500 0.3750  plane waves:   13604
 k-point    47 :  -0.2500 0.2500 0.3750  plane waves:   13549
 k-point    48 :  -0.0833 0.2500 0.3750  plane waves:   13553
 k-point    49 :   0.0833 0.4167 0.3750  plane waves:   13595
 k-point    50 :   0.2500 0.4167 0.3750  plane waves:   13632
 k-point    51 :   0.4167 0.4167 0.3750  plane waves:   13624
 k-point    52 :  -0.4167 0.4167 0.3750  plane waves:   13577
 k-point    53 :  -0.2500 0.4167 0.3750  plane waves:   13600
 k-point    54 :  -0.0833 0.4167 0.3750  plane waves:   13590
 k-point    55 :   0.0833-0.4167 0.3750  plane waves:   13592
 k-point    56 :   0.2500-0.4167 0.3750  plane waves:   13604
 k-point    57 :   0.4167-0.4167 0.3750  plane waves:   13579
 k-point    58 :  -0.4167-0.4167 0.3750  plane waves:   13620
 k-point    59 :  -0.2500-0.4167 0.3750  plane waves:   13634
 k-point    60 :  -0.0833-0.4167 0.3750  plane waves:   13595
 k-point    61 :   0.0833-0.2500 0.3750  plane waves:   13558
 k-point    62 :   0.2500-0.2500 0.3750  plane waves:   13549
 k-point    63 :   0.4167-0.2500 0.3750  plane waves:   13600
 k-point    64 :  -0.4167-0.2500 0.3750  plane waves:   13635
 k-point    65 :  -0.2500-0.2500 0.3750  plane waves:   13619
 k-point    66 :  -0.0833-0.2500 0.3750  plane waves:   13584
 k-point    67 :   0.0833-0.0833 0.3750  plane waves:   13549
 k-point    68 :   0.2500-0.0833 0.3750  plane waves:   13553
 k-point    69 :   0.4167-0.0833 0.3750  plane waves:   13590
 k-point    70 :  -0.4167-0.0833 0.3750  plane waves:   13595
 k-point    71 :  -0.2500-0.0833 0.3750  plane waves:   13586
 k-point    72 :  -0.0833-0.0833 0.3750  plane waves:   13545

 maximum and minimum number of plane-waves per node :     13635    13542

 maximum number of plane-waves:     13635
 maximum index in each direction: 
   IXMAX=   10   IYMAX=   10   IZMAX=   37
   IXMIN=  -10   IYMIN=  -10   IZMIN=  -37


 serial   3D FFT for wavefunctions
 parallel 3D FFT for charge:
    minimum data exchange during FFTs selected (reduces bandwidth)


 total amount of memory used by VASP MPI-rank0   372370. kBytes
=======================================================================

   base                                    :      30000. kBytes
   nonl-proj                               :     284793. kBytes
   fftplans                                :       2575. kBytes
   grid                                    :      23111. kBytes
   one-center                              :        248. kBytes
   wavefun                                 :      31643. kBytes
 
     INWAV:  cpu time      0.0000: real time      0.0000
 Broyden mixing: mesh for mixing (old mesh)
   NGX = 21   NGY = 21   NGZ = 75
  (NGX  = 80   NGY  = 80   NGZ  =300)
  gives a total of  33075 points

 initial charge density was supplied:
 charge density of overlapping atoms calculated
 number of electron      54.0000000 magnetization       9.6000000
 keeping initial charge density in first step


--------------------------------------------------------------------------------------------------------


 Maximum index for augmentation-charges          693 (set IRDMAX)


--------------------------------------------------------------------------------------------------------


 First call to EWALD:  gamma=   0.195
 Maximum number of real-space cells   4x   4x   1
 Maximum number of reciprocal cells   2x   2x   6

    FEWALD:  cpu time      0.0944: real time      0.5651


--------------------------------------- Ionic step        1  -------------------------------------------




--------------------------------------- Iteration      1(   1)  ---------------------------------------


    POTLOK:  cpu time      1.0839: real time      6.5085
    SETDIJ:  cpu time      0.1582: real time      0.9554
     EDDAV:  cpu time    169.9247: real time   1019.5096
       DOS:  cpu time      0.5402: real time      3.2355
    --------------------------------------------
      LOOP:  cpu time    171.7072: real time   1030.2091

 eigenvalue-minimisations  : 12096
 total energy-change (2. order) : 0.4049102E+03  (-0.1649830E+04)
 number of electron      54.0000000 magnetization       9.6000000
 augmentation part       54.0000000 magnetization       9.6000000

 Free energy of the ion-electron system (eV)
  ---------------------------------------------------
  alpha Z        PSCENC =        23.01523305
  Ewald energy   TEWEN  =      7534.95570762
  -Hartree energ DENC   =    -10194.69169658
  -exchange      EXHF   =         0.00000000
  -V(xc)+E(xc)   XCENC  =        82.16019382
  PAW double counting   =      2504.62862977    -2465.96035111
  entropy T*S    EENTRO =        -0.00930273
  eigenvalues    EBANDS =       -91.25826179
  atomic energy  EATOM  =      3012.07006103
  Solvation  Ediel_sol  =         0.00000000
  ---------------------------------------------------
  free energy    TOTEN  =       404.91021308 eV

  energy without entropy =      404.91951580  energy(sigma->0) =      404.91486444


--------------------------------------------------------------------------------------------------------




--------------------------------------- Iteration      1(   2)  ---------------------------------------


     EDDAV:  cpu time    254.3774: real time   1526.0269
       DOS:  cpu time      0.5555: real time      3.3310
    --------------------------------------------
      LOOP:  cpu time    254.9329: real time   1529.3579

 eigenvalue-minimisations  : 20958
 total energy-change (2. order) :-0.4102042E+03  (-0.4087911E+03)
 number of electron      54.0000000 magnetization       9.6000000
 augmentation part       54.0000000 magnetization       9.6000000

 Free energy of the ion-electron system (eV)
  ---------------------------------------------------
  alpha Z        PSCENC =        23.01523305
  Ewald energy   TEWEN  =      7534.95570762
  -Hartree energ DENC   =    -10194.69169658
  -exchange      EXHF   =         0.00000000
  -V(xc)+E(xc)   XCENC  =        82.16019382
  PAW double counting   =      2504.62862977    -2465.96035111
  entropy T*S    EENTRO =        -0.00207573
  eigenvalues    EBANDS =      -501.46970854
  atomic energy  EATOM  =      3012.07006103
  Solvation  Ediel_sol  =         0.00000000
  ---------------------------------------------------
  free energy    TOTEN  =        -5.29400667 eV

  energy without entropy =       -5.29193094  energy(sigma->0) =       -5.29296880


--------------------------------------------------------------------------------------------------------




--------------------------------------- Iteration      1(   3)  ---------------------------------------


     EDDAV:  cpu time    171.3995: real time   1028.3500
       DOS:  cpu time      0.1793: real time      1.0800
    --------------------------------------------
      LOOP:  cpu time    171.5789: real time   1029.4301

 eigenvalue-minimisations  : 12180
 total energy-change (2. order) :-0.3682249E+02  (-0.3672812E+02)
 number of electron      54.0000000 magnetization       9.6000000
 augmentation part       54.0000000 magnetization       9.6000000

 Free energy of the ion-electron system (eV)
  ---------------------------------------------------
  alpha Z        PSCENC =        23.01523305
  Ewald energy   TEWEN  =      7534.95570762
  -Hartree energ DENC   =    -10194.69169658
  -exchange      EXHF   =         0.00000000
  -V(xc)+E(xc)   XCENC  =        82.16019382
  PAW double counting   =      2504.62862977    -2465.96035111
  entropy T*S    EENTRO =        -0.00000000
  eigenvalues    EBANDS =      -538.29426945
  atomic energy  EATOM  =      3012.07006103
  Solvation  Ediel_sol  =         0.00000000
  ---------------------------------------------------
  free energy    TOTEN  =       -42.11649185 eV

  energy without entropy =      -42.11649185  energy(sigma->0) =      -42.11649185


--------------------------------------------------------------------------------------------------------




--------------------------------------- Iteration      1(   4)  ---------------------------------------


     EDDAV:  cpu time    284.8782: real time   1709.1230
       DOS:  cpu time      0.1998: real time      1.2080
    --------------------------------------------
      LOOP:  cpu time    285.0780: real time   1710.3309

 eigenvalue-minimisations  : 24150
 total energy-change (2. order) :-0.8549197E+00  (-0.8549197E+00)
 number of electron      54.0000000 magnetization       9.6000000
 augmentation part       54.0000000 magnetization       9.6000000

 Free energy of the ion-electron system (eV)
  ---------------------------------------------------
  alpha Z        PSCENC =        23.01523305
  Ewald energy   TEWEN  =      7534.95570762
  -Hartree energ DENC   =    -10194.69169658
  -exchange      EXHF   =         0.00000000
  -V(xc)+E(xc)   XCENC  =        82.16019382
  PAW double counting   =      2504.62862977    -2465.96035111
  entropy T*S    EENTRO =        -0.00000000
  eigenvalues    EBANDS =      -539.14918912
  atomic energy  EATOM  =      3012.07006103
  Solvation  Ediel_sol  =         0.00000000
  ---------------------------------------------------
  free energy    TOTEN  =       -42.97141152 eV

  energy without entropy =      -42.97141152  energy(sigma->0) =      -42.97141152


--------------------------------------------------------------------------------------------------------




--------------------------------------- Iteration      1(   5)  ---------------------------------------


     EDDAV:  cpu time    240.5659: real time   1443.1372
       DOS:  cpu time      0.1977: real time      1.1769
    CHARGE:  cpu time      3.5937: real time     21.5579
    MIXING:  cpu time      0.1811: real time      1.0532
    --------------------------------------------
      LOOP:  cpu time    244.5386: real time   1466.9254

 eigenvalue-minimisations  : 19656
 total energy-change (2. order) :-0.6338323E-03  (-0.6338323E-03)
 number of electron      53.9999989 magnetization       9.1940583
 augmentation part       -2.1433779 magnetization       6.5257258

 Broyden mixing:
  rms(total) = 0.19171E+01    rms(broyden)= 0.19169E+01
  rms(prec ) = 0.20206E+01
  weight for this iteration     100.00

 Free energy of the ion-electron system (eV)
  ---------------------------------------------------
  alpha Z        PSCENC =        23.01523305
  Ewald energy   TEWEN  =      7534.95570762
  -Hartree energ DENC   =    -10194.69169658
  -exchange      EXHF   =         0.00000000
  -V(xc)+E(xc)   XCENC  =        82.16019382
  PAW double counting   =      2504.62862977    -2465.96035111
  entropy T*S    EENTRO =        -0.00000000
  eigenvalues    EBANDS =      -539.14982295
  atomic energy  EATOM  =      3012.07006103
  Solvation  Ediel_sol  =         0.00000000
  ---------------------------------------------------
  free energy    TOTEN  =       -42.97204535 eV

  energy without entropy =      -42.97204535  energy(sigma->0) =      -42.97204535


--------------------------------------------------------------------------------------------------------




--------------------------------------- Iteration      1(   6)  ---------------------------------------


    POTLOK:  cpu time      1.1705: real time      7.0528
    SETDIJ:  cpu time      0.1589: real time      0.9510
     EDDAV:  cpu time    250.4264: real time   1502.1041
       DOS:  cpu time      0.1997: real time      1.1959
    CHARGE:  cpu time      3.8287: real time     23.0390
    MIXING:  cpu time      0.2232: real time      1.3280
    --------------------------------------------
      LOOP:  cpu time    256.0072: real time   1535.6706

 eigenvalue-minimisations  : 20790
 total energy-change (2. order) : 0.6326447E+01  (-0.1133348E+02)
 number of electron      53.9999989 magnetization       9.0281106
 augmentation part        1.1087666 magnetization       7.1819849

 Broyden mixing:
  rms(total) = 0.21134E+01    rms(broyden)= 0.21133E+01
  rms(prec ) = 0.21961E+01
  weight for this iteration     100.00

 eigenvalues of (default mixing * dielectric matrix)
  average eigenvalue GAMMA=   0.3326
  0.3326

 Free energy of the ion-electron system (eV)
  ---------------------------------------------------
  alpha Z        PSCENC =        23.01523305
  Ewald energy   TEWEN  =      7534.95570762
  -Hartree energ DENC   =    -10179.48923754
  -exchange      EXHF   =         0.00000000
  -V(xc)+E(xc)   XCENC  =        88.23619761
  PAW double counting   =      2801.75204852    -2758.96020868
  entropy T*S    EENTRO =        -0.00000000
  eigenvalues    EBANDS =      -558.22539994
  atomic energy  EATOM  =      3012.07006103
  Solvation  Ediel_sol  =         0.00000000
  ---------------------------------------------------
  free energy    TOTEN  =       -36.64559833 eV

  energy without entropy =      -36.64559833  energy(sigma->0) =      -36.64559833


--------------------------------------------------------------------------------------------------------




--------------------------------------- Iteration      1(   7)  ---------------------------------------


    POTLOK:  cpu time      1.1231: real time      6.7400
    SETDIJ:  cpu time      0.1642: real time      0.9940
     EDDAV:  cpu time    219.8989: real time   1318.9471
       DOS:  cpu time      0.1959: real time      1.1776
    CHARGE:  cpu time      3.8747: real time     23.3833
    MIXING:  cpu time      0.2357: real time      1.3960
    --------------------------------------------
      LOOP:  cpu time    225.4924: real time   1352.6380

 eigenvalue-minimisations  : 17598
 total energy-change (2. order) : 0.2275471E+01  (-0.3903862E+01)
 number of electron      53.9999989 magnetization       8.6100451
 augmentation part       -0.7792414 magnetization       6.6698341

 Broyden mixing:
  rms(total) = 0.88866E+00    rms(broyden)= 0.88863E+00
  rms(prec ) = 0.89630E+00
  weight for this iteration     100.00

 eigenvalues of (default mixing * dielectric matrix)
  average eigenvalue GAMMA=   0.7252
  1.0864  0.3640

 Free energy of the ion-electron system (eV)
  ---------------------------------------------------
  alpha Z        PSCENC =        23.01523305
  Ewald energy   TEWEN  =      7534.95570762
  -Hartree energ DENC   =    -10191.70083579
  -exchange      EXHF   =         0.00000000
  -V(xc)+E(xc)   XCENC  =        87.98851473
  PAW double counting   =      2969.37613335    -2929.65027979
  entropy T*S    EENTRO =        -0.00000000
  eigenvalues    EBANDS =      -540.42466178
  atomic energy  EATOM  =      3012.07006103
  Solvation  Ediel_sol  =         0.00000000
  ---------------------------------------------------
  free energy    TOTEN  =       -34.37012757 eV

  energy without entropy =      -34.37012757  energy(sigma->0) =      -34.37012757


--------------------------------------------------------------------------------------------------------




--------------------------------------- Iteration      1(   8)  ---------------------------------------


    POTLOK:  cpu time      1.1181: real time      6.7130
    SETDIJ:  cpu time      0.1447: real time      0.8810
     EDDAV:  cpu time    241.9697: real time   1235.2780
       DOS:  cpu time      0.1620: real time      0.7978
    CHARGE:  cpu time      3.7735: real time     18.8706
    MIXING:  cpu time      0.2415: real time      1.2015
    --------------------------------------------
      LOOP:  cpu time    247.4096: real time   1263.7420

 eigenvalue-minimisations  : 20034
 total energy-change (2. order) :-0.1585355E+00  (-0.9343910E-01)
 number of electron      53.9999989 magnetization       8.0961494
 augmentation part       -0.6484951 magnetization       6.2579646

 Broyden mixing:
  rms(total) = 0.41136E+00    rms(broyden)= 0.41136E+00
  rms(prec ) = 0.41573E+00
  weight for this iteration     100.00

 eigenvalues of (default mixing * dielectric matrix)
  average eigenvalue GAMMA=   1.0167
  1.9116  0.7450  0.3934

 Free energy of the ion-electron system (eV)
  ---------------------------------------------------
  alpha Z        PSCENC =        23.01523305
  Ewald energy   TEWEN  =      7534.95570762
  -Hartree energ DENC   =    -10196.83951232
  -exchange      EXHF   =         0.00000000
  -V(xc)+E(xc)   XCENC  =        88.51908096
  PAW double counting   =      3284.42499253    -3245.88330232
  entropy T*S    EENTRO =        -0.00000000
  eigenvalues    EBANDS =      -534.79092358
  atomic energy  EATOM  =      3012.07006103
  Solvation  Ediel_sol  =         0.00000000
  ---------------------------------------------------
  free energy    TOTEN  =       -34.52866303 eV

  energy without entropy =      -34.52866303  energy(sigma->0) =      -34.52866303


--------------------------------------------------------------------------------------------------------




--------------------------------------- Iteration      1(   9)  ---------------------------------------


    POTLOK:  cpu time      1.0445: real time      5.2248
    SETDIJ:  cpu time      0.1292: real time      0.6512
     EDDAV:  cpu time    246.1344: real time   1230.7061
       DOS:  cpu time      0.1768: real time      0.8889
    CHARGE:  cpu time      3.9061: real time     19.5254
    MIXING:  cpu time      0.2255: real time      1.1315
    --------------------------------------------
      LOOP:  cpu time    251.6165: real time   1258.1280

 eigenvalue-minimisations  : 20328
 total energy-change (2. order) :-0.1505838E+01  (-0.1116275E+00)
 number of electron      53.9999989 magnetization       7.8116598
 augmentation part       -0.4026461 magnetization       6.0440837

 Broyden mixing:
  rms(total) = 0.18211E+00    rms(broyden)= 0.18211E+00
  rms(prec ) = 0.18774E+00
  weight for this iteration     100.00

 eigenvalues of (default mixing * dielectric matrix)
  average eigenvalue GAMMA=   1.0988
  2.3337  1.0117  0.4016  0.6481

 Free energy of the ion-electron system (eV)
  ---------------------------------------------------
  alpha Z        PSCENC =        23.01523305
  Ewald energy   TEWEN  =      7534.95570762
  -Hartree energ DENC   =    -10201.48127149
  -exchange      EXHF   =         0.00000000
  -V(xc)+E(xc)   XCENC  =        87.95244623
  PAW double counting   =      3527.02967491    -3489.20950120
  entropy T*S    EENTRO =        -0.00000000
  eigenvalues    EBANDS =      -530.36685162
  atomic energy  EATOM  =      3012.07006103
  Solvation  Ediel_sol  =         0.00000000
  ---------------------------------------------------
  free energy    TOTEN  =       -36.03450146 eV

  energy without entropy =      -36.03450146  energy(sigma->0) =      -36.03450146


--------------------------------------------------------------------------------------------------------




--------------------------------------- Iteration      1(  10)  ---------------------------------------


    POTLOK:  cpu time      1.1557: real time      5.7726
    SETDIJ:  cpu time      0.1544: real time      0.7734
     EDDAV:  cpu time    241.6420: real time   1208.1550
       DOS:  cpu time      0.1855: real time      0.9292
    CHARGE:  cpu time      3.7335: real time     18.6672
    MIXING:  cpu time      0.2868: real time      1.4395
    --------------------------------------------
      LOOP:  cpu time    247.1580: real time   1235.7370

 eigenvalue-minimisations  : 19866
 total energy-change (2. order) :-0.7187800E+00  (-0.3232333E-01)
 number of electron      53.9999989 magnetization       7.4013771
 augmentation part       -0.5042227 magnetization       5.6044355

 Broyden mixing:
  rms(total) = 0.11433E+00    rms(broyden)= 0.11433E+00
  rms(prec ) = 0.11499E+00
  weight for this iteration     100.00

 eigenvalues of (default mixing * dielectric matrix)
  average eigenvalue GAMMA=   1.1300
  2.5295  1.3270  0.4008  0.7435  0.6494

 Free energy of the ion-electron system (eV)
  ---------------------------------------------------
  alpha Z        PSCENC =        23.01523305
  Ewald energy   TEWEN  =      7534.95570762
  -Hartree energ DENC   =    -10203.10763455
  -exchange      EXHF   =         0.00000000
  -V(xc)+E(xc)   XCENC  =        87.40661637
  PAW double counting   =      3561.78517871    -3524.30439118
  entropy T*S    EENTRO =        -0.00000000
  eigenvalues    EBANDS =      -528.57405247
  atomic energy  EATOM  =      3012.07006103
  Solvation  Ediel_sol  =         0.00000000
  ---------------------------------------------------
  free energy    TOTEN  =       -36.75328142 eV

  energy without entropy =      -36.75328142  energy(sigma->0) =      -36.75328142


--------------------------------------------------------------------------------------------------------




--------------------------------------- Iteration      1(  11)  ---------------------------------------


    POTLOK:  cpu time      1.0725: real time      5.3456
    SETDIJ:  cpu time      0.1365: real time      0.6785
     EDDAV:  cpu time    237.7343: real time   1188.6360
       DOS:  cpu time      0.1973: real time      0.9951
    CHARGE:  cpu time      3.8984: real time     19.4928
    MIXING:  cpu time      0.2869: real time      1.4171
    --------------------------------------------
      LOOP:  cpu time    243.3259: real time   1216.5652

 eigenvalue-minimisations  : 19614
 total energy-change (2. order) :-0.7612895E+00  (-0.2456421E-01)
 number of electron      53.9999989 magnetization       6.8623607
 augmentation part       -0.5507269 magnetization       5.0445712

 Broyden mixing:
  rms(total) = 0.90490E-01    rms(broyden)= 0.90489E-01
  rms(prec ) = 0.91343E-01
  weight for this iteration     100.00

 eigenvalues of (default mixing * dielectric matrix)
  average eigenvalue GAMMA=   1.2236
  2.6465  1.8814  1.0666  0.4005  0.6733  0.6733

 Free energy of the ion-electron system (eV)
  ---------------------------------------------------
  alpha Z        PSCENC =        23.01523305
  Ewald energy   TEWEN  =      7534.95570762
  -Hartree energ DENC   =    -10203.60099746
  -exchange      EXHF   =         0.00000000
  -V(xc)+E(xc)   XCENC  =        86.73718652
  PAW double counting   =      3587.10331934    -3549.74214230
  entropy T*S    EENTRO =        -0.00000000
  eigenvalues    EBANDS =      -528.05293874
  atomic energy  EATOM  =      3012.07006103
  Solvation  Ediel_sol  =         0.00000000
  ---------------------------------------------------
  free energy    TOTEN  =       -37.51457094 eV

  energy without entropy =      -37.51457094  energy(sigma->0) =      -37.51457094


--------------------------------------------------------------------------------------------------------




--------------------------------------- Iteration      1(  12)  ---------------------------------------


    POTLOK:  cpu time      1.0206: real time      5.1119
    SETDIJ:  cpu time      0.1607: real time      0.8101
     EDDAV:  cpu time    193.2341: real time    966.2109
       DOS:  cpu time      0.1853: real time      0.9232
    CHARGE:  cpu time      3.8802: real time     19.4044
    MIXING:  cpu time      0.2781: real time      1.3764
    --------------------------------------------
      LOOP:  cpu time    198.7588: real time    993.8368

 eigenvalue-minimisations  : 14952
 total energy-change (2. order) :-0.6765186E+00  (-0.2467865E-01)
 number of electron      53.9999989 magnetization       6.5115605
 augmentation part       -0.5159868 magnetization       4.7008087

 Broyden mixing:
  rms(total) = 0.61439E-01    rms(broyden)= 0.61438E-01
  rms(prec ) = 0.61762E-01
  weight for this iteration     100.00

 eigenvalues of (default mixing * dielectric matrix)
  average eigenvalue GAMMA=   1.3157
  2.7442  2.5786  1.3462  0.4003  0.8288  0.6560  0.6560

 Free energy of the ion-electron system (eV)
  ---------------------------------------------------
  alpha Z        PSCENC =        23.01523305
  Ewald energy   TEWEN  =      7534.95570762
  -Hartree energ DENC   =    -10203.06694544
  -exchange      EXHF   =         0.00000000
  -V(xc)+E(xc)   XCENC  =        86.14505101
  PAW double counting   =      3575.35444900    -3537.85793062
  entropy T*S    EENTRO =        -0.00000000
  eigenvalues    EBANDS =      -528.80671520
  atomic energy  EATOM  =      3012.07006103
  Solvation  Ediel_sol  =         0.00000000
  ---------------------------------------------------
  free energy    TOTEN  =       -38.19108954 eV

  energy without entropy =      -38.19108954  energy(sigma->0) =      -38.19108954


--------------------------------------------------------------------------------------------------------




--------------------------------------- Iteration      1(  13)  ---------------------------------------


    POTLOK:  cpu time      1.0752: real time      5.3897
    SETDIJ:  cpu time      0.1334: real time      0.6484
     EDDAV:  cpu time    236.1546: real time   1180.7110
       DOS:  cpu time      0.1854: real time      0.9260
    CHARGE:  cpu time      3.9031: real time     19.5280
    MIXING:  cpu time      0.3243: real time      1.6090
    --------------------------------------------
      LOOP:  cpu time    241.7759: real time   1208.8120

 eigenvalue-minimisations  : 19530
 total energy-change (2. order) :-0.2678318E+00  (-0.7838871E-02)
 number of electron      53.9999989 magnetization       6.1436946
 augmentation part       -0.5176075 magnetization       4.3395616

 Broyden mixing:
  rms(total) = 0.35648E-01    rms(broyden)= 0.35648E-01
  rms(prec ) = 0.36095E-01
  weight for this iteration     100.00

 eigenvalues of (default mixing * dielectric matrix)
  average eigenvalue GAMMA=   1.6584
  5.9139  2.4880  1.3174  1.1178  0.4004  0.7441  0.6427  0.6427

 Free energy of the ion-electron system (eV)
  ---------------------------------------------------
  alpha Z        PSCENC =        23.01523305
  Ewald energy   TEWEN  =      7534.95570762
  -Hartree energ DENC   =    -10202.75791410
  -exchange      EXHF   =         0.00000000
  -V(xc)+E(xc)   XCENC  =        85.93962595
  PAW double counting   =      3552.91706627    -3515.39225192
  entropy T*S    EENTRO =        -0.00000000
  eigenvalues    EBANDS =      -529.20644921
  atomic energy  EATOM  =      3012.07006103
  Solvation  Ediel_sol  =         0.00000000
  ---------------------------------------------------
  free energy    TOTEN  =       -38.45892131 eV

  energy without entropy =      -38.45892131  energy(sigma->0) =      -38.45892131


--------------------------------------------------------------------------------------------------------




--------------------------------------- Iteration      1(  14)  ---------------------------------------


    POTLOK:  cpu time      1.1076: real time      5.5450
    SETDIJ:  cpu time      0.1314: real time      0.6640
     EDDAV:  cpu time    197.6092: real time    987.9110
       DOS:  cpu time      0.1939: real time      0.9498
    CHARGE:  cpu time      3.9437: real time     19.7327
    MIXING:  cpu time      0.3627: real time      1.8165
    --------------------------------------------
      LOOP:  cpu time    203.3485: real time   1016.6190

 eigenvalue-minimisations  : 15414
 total energy-change (2. order) :-0.1877019E+00  (-0.6459450E-02)
 number of electron      53.9999989 magnetization       6.0544856
 augmentation part       -0.5346454 magnetization       4.2442014

 Broyden mixing:
  rms(total) = 0.19941E-01    rms(broyden)= 0.19940E-01
  rms(prec ) = 0.21455E-01
  weight for this iteration     100.00

 eigenvalues of (default mixing * dielectric matrix)
  average eigenvalue GAMMA=   1.7946
  7.7170  2.4513  1.3672  1.3672  0.4004  0.8735  0.6340  0.6704  0.6704

 Free energy of the ion-electron system (eV)
  ---------------------------------------------------
  alpha Z        PSCENC =        23.01523305
  Ewald energy   TEWEN  =      7534.95570762
  -Hartree energ DENC   =    -10202.45277281
  -exchange      EXHF   =         0.00000000
  -V(xc)+E(xc)   XCENC  =        85.74320448
  PAW double counting   =      3545.56752199    -3508.09991045
  entropy T*S    EENTRO =        -0.00000000
  eigenvalues    EBANDS =      -529.44566813
  atomic energy  EATOM  =      3012.07006103
  Solvation  Ediel_sol  =         0.00000000
  ---------------------------------------------------
  free energy    TOTEN  =       -38.64662321 eV

  energy without entropy =      -38.64662321  energy(sigma->0) =      -38.64662321


--------------------------------------------------------------------------------------------------------




--------------------------------------- Iteration      1(  15)  ---------------------------------------


    POTLOK:  cpu time      1.1113: real time      5.5551
    SETDIJ:  cpu time      0.1589: real time      0.7969
     EDDAV:  cpu time    235.5857: real time   1177.8430
       DOS:  cpu time      0.1853: real time      0.9302
    CHARGE:  cpu time      3.9971: real time     20.0028
    MIXING:  cpu time      0.3410: real time      1.6840
    --------------------------------------------
      LOOP:  cpu time    241.3793: real time   1206.8120

 eigenvalue-minimisations  : 19362
 total energy-change (2. order) :-0.1108102E+00  (-0.9108248E-03)
 number of electron      53.9999989 magnetization       6.0347111
 augmentation part       -0.5277170 magnetization       4.2243427

 Broyden mixing:
  rms(total) = 0.10154E-01    rms(broyden)= 0.10153E-01
  rms(prec ) = 0.11659E-01
  weight for this iteration     100.00

 eigenvalues of (default mixing * dielectric matrix)
  average eigenvalue GAMMA=   1.7610
  8.2947  2.4708  1.5143  1.3160  0.4004  0.8386  0.8386  0.7276  0.6187  0.5905

 Free energy of the ion-electron system (eV)
  ---------------------------------------------------
  alpha Z        PSCENC =        23.01523305
  Ewald energy   TEWEN  =      7534.95570762
  -Hartree energ DENC   =    -10202.03015510
  -exchange      EXHF   =         0.00000000
  -V(xc)+E(xc)   XCENC  =        85.62771172
  PAW double counting   =      3545.54581513    -3508.08040700
  entropy T*S    EENTRO =        -0.00000000
  eigenvalues    EBANDS =      -529.86139984
  atomic energy  EATOM  =      3012.07006103
  Solvation  Ediel_sol  =         0.00000000
  ---------------------------------------------------
  free energy    TOTEN  =       -38.75743338 eV

  energy without entropy =      -38.75743338  energy(sigma->0) =      -38.75743338


--------------------------------------------------------------------------------------------------------




--------------------------------------- Iteration      1(  16)  ---------------------------------------


    POTLOK:  cpu time      1.1203: real time      5.6026
    SETDIJ:  cpu time      0.1494: real time      0.7454
     EDDAV:  cpu time    238.7360: real time   1193.4550
       DOS:  cpu time      0.1655: real time      0.8280
    CHARGE:  cpu time      3.7461: real time     18.8215
    MIXING:  cpu time      0.4015: real time      2.0145
    --------------------------------------------
      LOOP:  cpu time    244.3188: real time   1221.4670

 eigenvalue-minimisations  : 19866
 total energy-change (2. order) :-0.1742185E-01  (-0.1212105E-03)
 number of electron      53.9999989 magnetization       6.0183616
 augmentation part       -0.5213346 magnetization       4.2097816

 Broyden mixing:
  rms(total) = 0.53748E-02    rms(broyden)= 0.53746E-02
  rms(prec ) = 0.68159E-02
  weight for this iteration     100.00

 eigenvalues of (default mixing * dielectric matrix)
  average eigenvalue GAMMA=   1.7272
  8.4840  2.4504  1.5357  1.2868  1.2868  0.4004  0.9270  0.7068  0.7068  0.6349
  0.5795

 Free energy of the ion-electron system (eV)
  ---------------------------------------------------
  alpha Z        PSCENC =        23.01523305
  Ewald energy   TEWEN  =      7534.95570762
  -Hartree energ DENC   =    -10201.53821056
  -exchange      EXHF   =         0.00000000
  -V(xc)+E(xc)   XCENC  =        85.61427597
  PAW double counting   =      3545.04680084    -3507.56953765
  entropy T*S    EENTRO =        -0.00000000
  eigenvalues    EBANDS =      -530.36918553
  atomic energy  EATOM  =      3012.07006103
  Solvation  Ediel_sol  =         0.00000000
  ---------------------------------------------------
  free energy    TOTEN  =       -38.77485523 eV

  energy without entropy =      -38.77485523  energy(sigma->0) =      -38.77485523


--------------------------------------------------------------------------------------------------------




--------------------------------------- Iteration      1(  17)  ---------------------------------------


    POTLOK:  cpu time      1.1112: real time      5.5550
    SETDIJ:  cpu time      0.1708: real time      0.8560
[...]
 total energy-change (2. order) :-0.8576100E-03  (-0.1925889E-04)
 number of electron      53.9999989 magnetization       6.0038136
 augmentation part       -0.5207071 magnetization       4.1955104

 Broyden mixing:
  rms(total) = 0.11098E-02    rms(broyden)= 0.11097E-02
  rms(prec ) = 0.18856E-02
  weight for this iteration     100.00

 eigenvalues of (default mixing * dielectric matrix)
  average eigenvalue GAMMA=   1.7192
  8.7695  3.2129  2.5200  1.4087  1.4087  1.3697  0.9074  0.9074  0.4004  0.7145
  0.7145  0.6264  0.6264  0.4818

 Free energy of the ion-electron system (eV)
  ---------------------------------------------------
  alpha Z        PSCENC =        23.01523305
  Ewald energy   TEWEN  =      7534.95570762
  -Hartree energ DENC   =    -10199.44608378
  -exchange      EXHF   =         0.00000000
  -V(xc)+E(xc)   XCENC  =        85.58881957
  PAW double counting   =      3550.78723909    -3513.31270244
  entropy T*S    EENTRO =        -0.00000000
  eigenvalues    EBANDS =      -532.44382833
  atomic energy  EATOM  =      3012.07006103
  Solvation  Ediel_sol  =         0.00000000
  ---------------------------------------------------
  free energy    TOTEN  =       -38.78555419 eV

  energy without entropy =      -38.78555419  energy(sigma->0) =      -38.78555419


--------------------------------------------------------------------------------------------------------




--------------------------------------- Iteration      1(  20)  ---------------------------------------


    POTLOK:  cpu time      1.0481: real time      5.2405
    SETDIJ:  cpu time      0.1525: real time      0.7675
     EDDAV:  cpu time    250.6890: real time   1253.4290
       DOS:  cpu time      0.1734: real time      0.8790
    CHARGE:  cpu time      3.8836: real time     19.4034
    MIXING:  cpu time      0.3812: real time      1.9076
    --------------------------------------------
      LOOP:  cpu time    256.3277: real time   1281.6270

 eigenvalue-minimisations  : 20874
 total energy-change (2. order) :-0.5499338E-03  (-0.6319328E-05)
 number of electron      53.9999989 magnetization       6.0027387
 augmentation part       -0.5215049 magnetization       4.1941029

 Broyden mixing:
  rms(total) = 0.11239E-02    rms(broyden)= 0.11239E-02
  rms(prec ) = 0.15864E-02
  weight for this iteration     100.00

 eigenvalues of (default mixing * dielectric matrix)
  average eigenvalue GAMMA=   1.7047
  8.7723  3.2040  2.5231  1.7433  1.7433  1.2924  1.0098  1.0098  0.4004  0.7502
  0.7502  0.6392  0.6392  0.6116  0.4822

 Free energy of the ion-electron system (eV)
  ---------------------------------------------------
  alpha Z        PSCENC =        23.01523305
  Ewald energy   TEWEN  =      7534.95570762
  -Hartree energ DENC   =    -10198.96582030
  -exchange      EXHF   =         0.00000000
  -V(xc)+E(xc)   XCENC  =        85.58277322
  PAW double counting   =      3550.28730055    -3512.81435884
  entropy T*S    EENTRO =        -0.00000000
  eigenvalues    EBANDS =      -532.91700047
  atomic energy  EATOM  =      3012.07006103
  Solvation  Ediel_sol  =         0.00000000
  ---------------------------------------------------
  free energy    TOTEN  =       -38.78610412 eV

  energy without entropy =      -38.78610412  energy(sigma->0) =      -38.78610412


--------------------------------------------------------------------------------------------------------




--------------------------------------- Iteration      1(  21)  ---------------------------------------


    POTLOK:  cpu time      1.0755: real time      5.3780
    SETDIJ:  cpu time      0.1515: real time      0.7587
     EDDAV:  cpu time    228.6729: real time   1143.1614
       DOS:  cpu time      0.1804: real time      0.9040
    CHARGE:  cpu time      3.8023: real time     18.9949
    MIXING:  cpu time      0.3920: real time      1.9681
    --------------------------------------------
      LOOP:  cpu time    234.2746: real time   1171.1651

 eigenvalue-minimisations  : 18690
 total energy-change (2. order) :-0.3747440E-03  (-0.3212245E-05)
 number of electron      53.9999989 magnetization       6.0019065
 augmentation part       -0.5209933 magnetization       4.1933743

 Broyden mixing:
  rms(total) = 0.73572E-03    rms(broyden)= 0.73571E-03
  rms(prec ) = 0.10446E-02
  weight for this iteration     100.00

 eigenvalues of (default mixing * dielectric matrix)
  average eigenvalue GAMMA=   1.7278
  8.7633  3.5353  2.5121  1.8954  1.8954  1.3543  1.3543  0.9991  0.9991  0.4004
  0.8099  0.7013  0.7013  0.6210  0.6210  0.4819

 Free energy of the ion-electron system (eV)
  ---------------------------------------------------
  alpha Z        PSCENC =        23.01523305
  Ewald energy   TEWEN  =      7534.95570762
  -Hartree energ DENC   =    -10198.60667650
  -exchange      EXHF   =         0.00000000
  -V(xc)+E(xc)   XCENC  =        85.57957798
  PAW double counting   =      3550.09216585    -3512.61935856
  entropy T*S    EENTRO =        -0.00000000
  eigenvalues    EBANDS =      -533.27318934
  atomic energy  EATOM  =      3012.07006103
  Solvation  Ediel_sol  =         0.00000000
  ---------------------------------------------------
  free energy    TOTEN  =       -38.78647887 eV

  energy without entropy =      -38.78647887  energy(sigma->0) =      -38.78647887


--------------------------------------------------------------------------------------------------------




--------------------------------------- Iteration      1(  22)  ---------------------------------------


    POTLOK:  cpu time      1.0507: real time      5.2615
    SETDIJ:  cpu time      0.1401: real time      0.7035
     EDDAV:  cpu time    228.7718: real time   1143.8620
       DOS:  cpu time      0.1464: real time      0.7322
    CHARGE:  cpu time      3.5848: real time     17.9192
    MIXING:  cpu time      0.4239: real time      2.1246
    --------------------------------------------
      LOOP:  cpu time    234.1176: real time   1170.6030

 eigenvalue-minimisations  : 18774
 total energy-change (2. order) :-0.2104315E-03  (-0.2729373E-05)
 number of electron      53.9999989 magnetization       6.0009649
 augmentation part       -0.5207096 magnetization       4.1925741

 Broyden mixing:
  rms(total) = 0.45519E-03    rms(broyden)= 0.45518E-03
  rms(prec ) = 0.62442E-03
  weight for this iteration     100.00

 eigenvalues of (default mixing * dielectric matrix)
  average eigenvalue GAMMA=   1.8461
  8.7585  5.3893  2.7612  2.1200  2.1200  1.8077  1.2370  1.1728  0.9052  0.9052
  0.4004  0.7221  0.7221  0.6515  0.6144  0.6144  0.4820

 Free energy of the ion-electron system (eV)
  ---------------------------------------------------
  alpha Z        PSCENC =        23.01523305
  Ewald energy   TEWEN  =      7534.95570762
  -Hartree energ DENC   =    -10198.24661954
  -exchange      EXHF   =         0.00000000
  -V(xc)+E(xc)   XCENC  =        85.57753670
  PAW double counting   =      3550.21838379    -3512.74578317
  entropy T*S    EENTRO =        -0.00000000
  eigenvalues    EBANDS =      -533.63120878
  atomic energy  EATOM  =      3012.07006103
  Solvation  Ediel_sol  =         0.00000000
  ---------------------------------------------------
  free energy    TOTEN  =       -38.78668930 eV

  energy without entropy =      -38.78668930  energy(sigma->0) =      -38.78668930


--------------------------------------------------------------------------------------------------------




--------------------------------------- Iteration      1(  23)  ---------------------------------------


    POTLOK:  cpu time      1.0809: real time      5.3965
    SETDIJ:  cpu time      0.1395: real time      0.6995
     EDDAV:  cpu time    255.6419: real time   1277.9951
       DOS:  cpu time      0.1717: real time      0.8714
    CHARGE:  cpu time      4.2439: real time     21.2049
    MIXING:  cpu time      0.4294: real time      2.1445
    --------------------------------------------
      LOOP:  cpu time    261.7074: real time   1308.3120

 eigenvalue-minimisations  : 21462
 total energy-change (2. order) :-0.8094319E-04  (-0.9707543E-06)
 number of electron      53.9999989 magnetization       6.0005748
 augmentation part       -0.5209194 magnetization       4.1920974

 Broyden mixing:
  rms(total) = 0.24366E-03    rms(broyden)= 0.24365E-03
  rms(prec ) = 0.35767E-03
  weight for this iteration     100.00

 eigenvalues of (default mixing * dielectric matrix)
  average eigenvalue GAMMA=   1.8507
  8.7725  6.1073  2.7418  2.5426  1.8585  1.8585  1.2416  1.2416  0.9830  0.9830
  0.4004  0.7622  0.7622  0.6944  0.6498  0.6152  0.6152  0.4820

 Free energy of the ion-electron system (eV)
  ---------------------------------------------------
  alpha Z        PSCENC =        23.01523305
  Ewald energy   TEWEN  =      7534.95570762
  -Hartree energ DENC   =    -10198.03792647
  -exchange      EXHF   =         0.00000000
  -V(xc)+E(xc)   XCENC  =        85.57588065
  PAW double counting   =      3550.25616073    -3512.78437082
  entropy T*S    EENTRO =        -0.00000000
  eigenvalues    EBANDS =      -533.83751604
  atomic energy  EATOM  =      3012.07006103
  Solvation  Ediel_sol  =         0.00000000
  ---------------------------------------------------
  free energy    TOTEN  =       -38.78677024 eV

  energy without entropy =      -38.78677024  energy(sigma->0) =      -38.78677024


--------------------------------------------------------------------------------------------------------




--------------------------------------- Iteration      1(  24)  ---------------------------------------


    POTLOK:  cpu time      1.0866: real time      5.4366
    SETDIJ:  cpu time      0.1587: real time      0.7954
     EDDAV:  cpu time    238.1144: real time   1190.4860
       DOS:  cpu time      0.1897: real time      0.9345
    CHARGE:  cpu time      3.8478: real time     19.2509
    MIXING:  cpu time      0.5038: real time      2.5216
    --------------------------------------------
      LOOP:  cpu time    243.9009: real time   1219.4250

 eigenvalue-minimisations  : 19824
 total energy-change (2. order) :-0.3173865E-04  (-0.1074538E-06)
 number of electron      53.9999989 magnetization       6.0003159
 augmentation part       -0.5208652 magnetization       4.1918155

 Broyden mixing:
  rms(total) = 0.19370E-03    rms(broyden)= 0.19370E-03
  rms(prec ) = 0.26456E-03
  weight for this iteration     100.00

 eigenvalues of (default mixing * dielectric matrix)
  average eigenvalue GAMMA=   1.8159
  8.7652  6.1351  2.6410  2.6410  1.8551  1.8551  1.3788  1.3788  0.4004  1.0224
  0.9471  0.9471  0.4820  0.7438  0.7438  0.6200  0.6200  0.6630  0.6630

 Free energy of the ion-electron system (eV)
  ---------------------------------------------------
  alpha Z        PSCENC =        23.01523305
  Ewald energy   TEWEN  =      7534.95570762
  -Hartree energ DENC   =    -10197.97156411
  -exchange      EXHF   =         0.00000000
  -V(xc)+E(xc)   XCENC  =        85.57530423
  PAW double counting   =      3550.24443893    -3512.77223776
  entropy T*S    EENTRO =        -0.00000000
  eigenvalues    EBANDS =      -533.90374497
  atomic energy  EATOM  =      3012.07006103
  Solvation  Ediel_sol  =         0.00000000
  ---------------------------------------------------
  free energy    TOTEN  =       -38.78680198 eV

  energy without entropy =      -38.78680198  energy(sigma->0) =      -38.78680198


--------------------------------------------------------------------------------------------------------




--------------------------------------- Iteration      1(  25)  ---------------------------------------


    POTLOK:  cpu time      1.0944: real time      5.4780
    SETDIJ:  cpu time      0.1725: real time      0.8610
     EDDAV:  cpu time    218.7121: real time   1093.4390
       DOS:  cpu time      0.1820: real time      0.9140
    CHARGE:  cpu time      3.8713: real time     19.3494
    MIXING:  cpu time      0.4593: real time      2.3005
    --------------------------------------------
      LOOP:  cpu time    224.4915: real time   1122.3419

 eigenvalue-minimisations  : 17682
 total energy-change (2. order) :-0.3026107E-04  (-0.7511279E-07)
 number of electron      53.9999989 magnetization       6.0000451
 augmentation part       -0.5208227 magnetization       4.1915473

 Broyden mixing:
  rms(total) = 0.10784E-03    rms(broyden)= 0.10784E-03
  rms(prec ) = 0.14709E-03
  weight for this iteration     100.00

 eigenvalues of (default mixing * dielectric matrix)
  average eigenvalue GAMMA=   1.9049
  8.7623  6.4980  3.5888  2.6911  2.6261  1.8867  1.8867  1.2403  1.2403  0.9785
  0.9785  0.4004  0.7845  0.7845  0.4820  0.7293  0.6207  0.6207  0.6588  0.6390

 Free energy of the ion-electron system (eV)
  ---------------------------------------------------
  alpha Z        PSCENC =        23.01523305
  Ewald energy   TEWEN  =      7534.95570762
  -Hartree energ DENC   =    -10197.92715157
  -exchange      EXHF   =         0.00000000
  -V(xc)+E(xc)   XCENC  =        85.57522047
  PAW double counting   =      3550.31873228    -3512.84644082
  entropy T*S    EENTRO =        -0.00000000
  eigenvalues    EBANDS =      -533.94819430
  atomic energy  EATOM  =      3012.07006103
  Solvation  Ediel_sol  =         0.00000000
  ---------------------------------------------------
  free energy    TOTEN  =       -38.78683224 eV

  energy without entropy =      -38.78683224  energy(sigma->0) =      -38.78683224


--------------------------------------------------------------------------------------------------------




--------------------------------------- Iteration      1(  26)  ---------------------------------------


    POTLOK:  cpu time      1.0932: real time      5.4666
    SETDIJ:  cpu time      0.1294: real time      0.6494
     EDDAV:  cpu time    202.7261: real time   1013.4400
       DOS:  cpu time      0.1912: real time      0.9550
    CHARGE:  cpu time      3.8688: real time     19.3349
    MIXING:  cpu time      0.4455: real time      2.2330
    --------------------------------------------
      LOOP:  cpu time    208.4543: real time   1042.0792

 eigenvalue-minimisations  : 16044
 total energy-change (2. order) :-0.2166042E-04  (-0.1172451E-06)
 number of electron      53.9999989 magnetization       6.0000115
 augmentation part       -0.5208181 magnetization       4.1915370

 Broyden mixing:
  rms(total) = 0.68420E-04    rms(broyden)= 0.68419E-04
  rms(prec ) = 0.77171E-04
  weight for this iteration     100.00

 eigenvalues of (default mixing * dielectric matrix)
  average eigenvalue GAMMA=   1.9502
  8.7676  7.8654  4.3627  2.5673  2.5673  1.7722  1.7722  1.5236  1.1100  1.1100
  0.4004  0.9134  0.9134  0.7976  0.7976  0.4820  0.6986  0.6717  0.6227  0.6227
  0.6158

 Free energy of the ion-electron system (eV)
  ---------------------------------------------------
  alpha Z        PSCENC =        23.01523305
  Ewald energy   TEWEN  =      7534.95570762
  -Hartree energ DENC   =    -10197.87877164
  -exchange      EXHF   =         0.00000000
  -V(xc)+E(xc)   XCENC  =        85.57533827
  PAW double counting   =      3550.36128954    -3512.88911661
  entropy T*S    EENTRO =        -0.00000000
  eigenvalues    EBANDS =      -533.99659517
  atomic energy  EATOM  =      3012.07006103
  Solvation  Ediel_sol  =         0.00000000
  ---------------------------------------------------
  free energy    TOTEN  =       -38.78685390 eV

  energy without entropy =      -38.78685390  energy(sigma->0) =      -38.78685390


--------------------------------------------------------------------------------------------------------




--------------------------------------- Iteration      1(  27)  ---------------------------------------


    POTLOK:  cpu time      1.1303: real time      5.6515
    SETDIJ:  cpu time      0.1584: real time      0.7985
     EDDAV:  cpu time    255.0316: real time   1275.0630
       DOS:  cpu time      0.1780: real time      0.8972
    CHARGE:  cpu time      3.8040: real time     19.0043
    MIXING:  cpu time      0.4883: real time      2.4375
    --------------------------------------------
      LOOP:  cpu time    260.7906: real time   1303.8519

 eigenvalue-minimisations  : 21546
 total energy-change (2. order) :-0.2282940E-05  (-0.3476937E-08)
 number of electron      53.9999989 magnetization       6.0000063
 augmentation part       -0.5208400 magnetization       4.1915295

 Broyden mixing:
  rms(total) = 0.36521E-04    rms(broyden)= 0.36521E-04
  rms(prec ) = 0.45056E-04
  weight for this iteration     100.00

 eigenvalues of (default mixing * dielectric matrix)
  average eigenvalue GAMMA=   1.9397
  8.7619  8.2972  4.3595  2.5291  2.5291  1.7632  1.7632  1.7746  1.1791  1.1791
  1.0219  0.9311  0.9311  0.4004  0.7848  0.7848  0.4820  0.6929  0.6528  0.6198
  0.6198  0.6165

 Free energy of the ion-electron system (eV)
  ---------------------------------------------------
  alpha Z        PSCENC =        23.01523305
  Ewald energy   TEWEN  =      7534.95570762
  -Hartree energ DENC   =    -10197.86931919
  -exchange      EXHF   =         0.00000000
  -V(xc)+E(xc)   XCENC  =        85.57532547
  PAW double counting   =      3550.34573821    -3512.87363489
  entropy T*S    EENTRO =        -0.00000000
  eigenvalues    EBANDS =      -534.00596750
  atomic energy  EATOM  =      3012.07006103
  Solvation  Ediel_sol  =         0.00000000
  ---------------------------------------------------
  free energy    TOTEN  =       -38.78685619 eV

  energy without entropy =      -38.78685619  energy(sigma->0) =      -38.78685619


--------------------------------------------------------------------------------------------------------




--------------------------------------- Iteration      1(  28)  ---------------------------------------


    POTLOK:  cpu time      1.0857: real time      5.4295
    SETDIJ:  cpu time      0.1645: real time      0.8355
     EDDAV:  cpu time    201.5098: real time   1007.5502
       DOS:  cpu time      0.1852: real time      0.9299
    CHARGE:  cpu time      3.8514: real time     19.2344
    MIXING:  cpu time      0.5366: real time      2.6915
    --------------------------------------------
      LOOP:  cpu time    207.3332: real time   1036.6711

 eigenvalue-minimisations  : 15876
 total energy-change (2. order) :-0.3691637E-05  (-0.4456407E-08)
 number of electron      53.9999989 magnetization       5.9999973
 augmentation part       -0.5208357 magnetization       4.1915188

 Broyden mixing:
  rms(total) = 0.21815E-04    rms(broyden)= 0.21815E-04
  rms(prec ) = 0.26887E-04
  weight for this iteration     100.00

 eigenvalues of (default mixing * dielectric matrix)
  average eigenvalue GAMMA=   1.9919
  8.7356  8.7356  4.7575  2.8342  2.4226  2.4226  2.0841  1.6035  1.6035  1.1450
  1.1450  0.9398  0.9398  0.4004  0.8360  0.7795  0.7795  0.4819  0.6771  0.6398
  0.6216  0.6142  0.6142

 Free energy of the ion-electron system (eV)
  ---------------------------------------------------
  alpha Z        PSCENC =        23.01523305
  Ewald energy   TEWEN  =      7534.95570762
  -Hartree energ DENC   =    -10197.86562382
  -exchange      EXHF   =         0.00000000
  -V(xc)+E(xc)   XCENC  =        85.57530701
  PAW double counting   =      3550.32949128    -3512.85738061
  entropy T*S    EENTRO =        -0.00000000
  eigenvalues    EBANDS =      -534.00965545
  atomic energy  EATOM  =      3012.07006103
  Solvation  Ediel_sol  =         0.00000000
  ---------------------------------------------------
  free energy    TOTEN  =       -38.78685988 eV

  energy without entropy =      -38.78685988  energy(sigma->0) =      -38.78685988


--------------------------------------------------------------------------------------------------------




--------------------------------------- Iteration      1(  29)  ---------------------------------------


    POTLOK:  cpu time      1.0474: real time      5.2335
    SETDIJ:  cpu time      0.1585: real time      0.7945
