 vasp.6.5.1 10Mar25 (build Apr 08 2025 20:07:02) complex                        
  
 executed on             LinuxIFC date 2025.06.11  14:32:39
 running   42 mpi-ranks, on    1 nodes
 distrk:  each k-point on   42 cores,    1 groups
 distr:  one band on NCORE=   1 cores,   42 groups


--------------------------------------------------------------------------------------------------------


 INCAR:
   PREC = Accurate
   ENCUT = 500
   ISMEAR = 0
   SIGMA = 0.05
   EDIFF = 1E-6
   ISPIN = 2
   LCHARG = .FALSE.
   LWAVE = .FALSE.
   NSW = 0
   IBRION = -1
   ISYM = 0
   LREAL = .FALSE.
   MAGMOM = 2*3.0 6*0.6

 POTCAR:    PAW_PBE Cr 06Sep2000                  
 POTCAR:    PAW_PBE Cl 06Sep2000                  
 -----------------------------------------------------------------------------
|                                                                             |
|           W    W    AA    RRRRR   N    N  II  N    N   GGGG   !!!           |
|           W    W   A  A   R    R  NN   N  II  NN   N  G    G  !!!           |
|           W    W  A    A  R    R  N N  N  II  N N  N  G       !!!           |
|           W WW W  AAAAAA  RRRRR   N  N N  II  N  N N  G  GGG   !            |
|           WW  WW  A    A  R   R   N   NN  II  N   NN  G    G                |
|           W    W  A    A  R    R  N    N  II  N    N   GGGG   !!!           |
|                                                                             |
|     For optimal performance we recommend to set                             |
|       NCORE = 2 up to number-of-cores-per-socket                            |
|     NCORE specifies how many cores store one orbital (NPAR=cpu/NCORE).      |
|     This setting can greatly improve the performance of VASP for DFT.       |
|     The default, NCORE=1 might be grossly inefficient on modern             |
|     multi-core architectures or massively parallel machines. Do your        |
|     own testing! More info at https://www.vasp.at/wiki/index.php/NCORE      |
|     Unfortunately you need to use the default for GW and RPA                |
|     calculations (for HF NCORE is supported but not extensively tested      |
|     yet).                                                                   |
|                                                                             |
 -----------------------------------------------------------------------------

 POTCAR:    PAW_PBE Cr 06Sep2000                  
   SHA256 =  56e7271fac8042f322b235801e26979132a24da65eb043fa6a03029023cb2fcc Cr/POTCAR             
   COPYR  = (c) Copyright 06Sep2000 Georg Kresse                                                    
   COPYR  = This file is part of the software VASP. Any use, copying, and all other rights are regul
   COPYR  = If you do not have a valid VASP license, you may not use, copy or distribute this file. 
   VRHFIN =Cr : d5 s1                                                                               
   LEXCH  = PE                                                                                      
   EATOM  =   276.8859 eV,   20.3505 Ry                                                             
                                                                                                    
   TITEL  = PAW_PBE Cr 06Sep2000                                                                    
   LULTRA =        F    use ultrasoft PP ?                                                          
   IUNSCR =        1    unscreen: 0-lin 1-nonlin 2-no                                               
   RPACOR =    2.080    partial core radius                                                         
   POMASS =   51.996; ZVAL   =    6.000    mass and valenz                                          
   RCORE  =    2.500    outmost cutoff radius                                                       
   RWIGS  =    2.500; RWIGS  =    1.323    wigner-seitz radius (au A)                               
   ENMAX  =  227.080; ENMIN  =  170.310 eV                                                          
   RCLOC  =    1.721    cutoff for local pot                                                        
   LCOR   =        T    correct aug charges                                                         
   LPAW   =        T    paw PP                                                                      
   EAUG   =  402.108                                                                                
   DEXC   =    0.000                                                                                
   RMAX   =    2.552    core radius for proj-oper                                                   
   RAUG   =    1.300    factor for augmentation sphere                                              
   RDEP   =    2.609    radius for radial grids                                                     
   RDEPT  =    2.065    core radius for aug-charge                                                  
                                                                                                    
   Atomic configuration                                                                             
    9 entries                                                                                       
     n  l   j            E        occ.                                                              
     1  0  0.50     -5880.4963   2.0000                                                             
     2  0  0.50      -667.0865   2.0000                                                             
     2  1  1.50      -560.6250   6.0000                                                             
     3  0  0.50       -73.9860   2.0000                                                             
     3  1  1.50       -45.4378   6.0000                                                             
     3  2  2.50        -2.9137   5.0000                                                             
     4  0  0.50        -4.0071   1.0000                                                             
     4  1  0.50        -1.2789   0.0000                                                             
     4  3  2.50        -1.3606   0.0000                                                             
   Description                                                                                      
     l       E           TYP  RCUT    TYP  RCUT                                                     
     2     -2.9136677     23  2.500                                                                 
     2     -4.2742503     23  2.500                                                                 
     0     -4.0071322     23  2.500                                                                 
     0      9.4498801     23  2.500                                                                 
     1     -5.4423304     23  2.500                                                                 
     1     27.2116520     23  2.500                                                                 
  local pseudopotential read in
  partial core-charges read in
  partial kinetic energy density read in
  atomic valenz-charges read in
  non local Contribution for L=           2  read in
    real space projection operators read in
  non local Contribution for L=           2  read in
    real space projection operators read in
  non local Contribution for L=           0  read in
    real space projection operators read in
  non local Contribution for L=           0  read in
    real space projection operators read in
  non local Contribution for L=           1  read in
    real space projection operators read in
  non local Contribution for L=           1  read in
    real space projection operators read in
    PAW grid and wavefunctions read in
 
   number of l-projection  operators is LMAX  =           6
   number of lm-projection operators is LMMAX =          18
 
 POTCAR:    PAW_PBE Cl 06Sep2000                  
   SHA256 =  9f1b6e6ed4247ac726a768b330d26d7667cc3c95a39ff49c1d064c2d9dcce931 Cl/POTCAR             
   COPYR  = (c) Copyright 06Sep2000 Georg Kresse                                                    
   COPYR  = This file is part of the software VASP. Any use, copying, and all other rights are regul
   COPYR  = If you do not have a valid VASP license, you may not use, copy or distribute this file. 
   VRHFIN =Cl: s2p5                                                                                 
   LEXCH  = PE                                                                                      
   EATOM  =   409.7259 eV,   30.1140 Ry                                                             
                                                                                                    
   TITEL  = PAW_PBE Cl 06Sep2000                                                                    
   LULTRA =        F    use ultrasoft PP ?                                                          
   IUNSCR =        1    unscreen: 0-lin 1-nonlin 2-no                                               
   RPACOR =    1.500    partial core radius                                                         
   POMASS =   35.453; ZVAL   =    7.000    mass and valenz                                          
   RCORE  =    1.900    outmost cutoff radius                                                       
   RWIGS  =    2.100; RWIGS  =    1.111    wigner-seitz radius (au A)                               
   ENMAX  =  262.472; ENMIN  =  196.854 eV                                                          
   ICORE  =        2    local potential                                                             
   LCOR   =        T    correct aug charges                                                         
   LPAW   =        T    paw PP                                                                      
   EAUG   =  356.192                                                                                
   DEXC   =    0.000                                                                                
   RMAX   =    1.945    core radius for proj-oper                                                   
   RAUG   =    1.300    factor for augmentation sphere                                              
   RDEP   =    2.020    radius for radial grids                                                     
   RDEPT  =    1.678    core radius for aug-charge                                                  
                                                                                                    
   Atomic configuration                                                                             
    6 entries                                                                                       
     n  l   j            E        occ.                                                              
     1  0  0.50     -2751.1850   2.0000                                                             
     2  0  0.50      -252.6861   2.0000                                                             
     2  1  1.50      -191.6157   6.0000                                                             
     3  0  0.50       -20.6916   2.0000                                                             
     3  1  0.50        -8.5949   5.0000                                                             
     3  2  1.50        -8.1635   0.0000                                                             
   Description                                                                                      
     l       E           TYP  RCUT    TYP  RCUT                                                     
     0    -20.6915656     23  1.900                                                                 
     0    -22.0521482     23  1.900                                                                 
     1     -8.5948577     23  1.900                                                                 
     1     -5.3847331     23  1.900                                                                 
     2     -8.1634956     23  1.900                                                                 
  local pseudopotential read in
  partial core-charges read in
  partial kinetic energy density read in
  atomic valenz-charges read in
  non local Contribution for L=           0  read in
    real space projection operators read in
  non local Contribution for L=           0  read in
    real space projection operators read in
  non local Contribution for L=           1  read in
    real space projection operators read in
  non local Contribution for L=           1  read in
    real space projection operators read in
    PAW grid and wavefunctions read in
 
   number of l-projection  operators is LMAX  =           4
   number of lm-projection operators is LMMAX =           8
 
  PAW_PBE Cr 06Sep2000                  :
 energy of atom  1       EATOM= -276.8859
 kinetic energy error for atom=    0.0012 (will be added to EATOM!!)
  PAW_PBE Cl 06Sep2000                  :
 energy of atom  2       EATOM= -409.7259
 kinetic energy error for atom=    0.0030 (will be added to EATOM!!)
 
 
 POSCAR: 
 -----------------------------------------------------------------------------
|                                                                             |
|           W    W    AA    RRRRR   N    N  II  N    N   GGGG   !!!           |
|           W    W   A  A   R    R  NN   N  II  NN   N  G    G  !!!           |
|           W    W  A    A  R    R  N N  N  II  N N  N  G       !!!           |
|           W WW W  AAAAAA  RRRRR   N  N N  II  N  N N  G  GGG   !            |
|           WW  WW  A    A  R   R   N   NN  II  N   NN  G    G                |
|           W    W  A    A  R    R  N    N  II  N    N   GGGG   !!!           |
|                                                                             |
|     Inconsistent Bravais lattice types found for crystalline and            |
|     reciprocal lattice:                                                     |
|                                                                             |
|        Crystalline: base-centered monoclinic                                |
|        Reciprocal : triclinic                                               |
|                    (instead of base-centered monoclinic)                    |
|                                                                             |
|     In most cases this is due to inaccuracies in the specification of       |
|     the crytalline lattice vectors.                                         |
|                                                                             |
|     Suggested SOLUTIONS:                                                    |
|      ) Refine the lattice parameters of your structure,                     |
|      ) and/or try changing SYMPREC.                                         |
|                                                                             |
 -----------------------------------------------------------------------------

  positions in direct lattice
  velocities in cartesian coordinates


 exchange-correlation table for PE
   RHO(1)=    0.500       N(1)  =     2000
   RHO(2)=  100.500       N(2)  =     4000
 


--------------------------------------------------------------------------------------------------------


 ion  position               nearest neighbor table
   1  0.667  0.333  0.500-   3 2.37   8 2.37   5 2.37   7 2.37   4 2.37   6 2.37
   2  1.000  0.000  0.500-   7 2.37   5 2.37   3 2.37   8 2.37   4 2.37   6 2.37
   3  0.333  0.029  0.558-   1 2.37   2 2.37
   4  0.971  0.305  0.558-   2 2.37   1 2.37
   5  0.696  0.666  0.558-   2 2.37   1 2.37
   6  0.695  0.029  0.442-   2 2.37   1 2.37
   7  0.334  0.304  0.442-   2 2.37   1 2.37
   8  0.971  0.667  0.442-   1 2.37   2 2.37
 

IMPORTANT INFORMATION: All symmetrisations will be switched off!
NOSYMM: (Re-)initialisation of all symmetry stuff for point group C_1.


----------------------------------------------------------------------------------------

                                     Primitive cell                                     

  volume of cell :     747.9816

  direct lattice vectors                    reciprocal lattice vectors
     6.154088000 -0.002745000  0.000611000     0.162535521  0.093943719 -0.000034071
    -3.079421000  5.327821000  0.000675000     0.000083745  0.187742402 -0.000035214
     0.002310000  0.004279000 22.818631000    -0.000004355 -0.000008069  0.043823840

  length of vectors
     6.154088643  6.153739575 22.818631518     0.187731774  0.187742424  0.043823841

  position of ions in fractional coordinates (direct lattice)
     0.666677028  0.333310611  0.500000695
     0.999989260  0.000021870  0.500000530
     0.333113150  0.029071810  0.557998187
     0.971390735  0.304732769  0.557849020
     0.695759454  0.666447055  0.558003728
     0.695276901  0.028595863  0.442150097
     0.333556670  0.304266304  0.442000817
     0.970904157  0.666881836  0.441995401

  ion indices of the primitive-cell ions
   primitive index   ion index
                 1           1
                 2           2
                 3           3
                 4           4
                 5           5
                 6           6
                 7           7
                 8           8

----------------------------------------------------------------------------------------

 
 
 KPOINTS: Automatic mesh                          

Automatic generation of k-mesh.
 Grid dimensions read from file:
 generate k-points for:    6    6    4

 Generating k-lattice:

  Cartesian coordinates                     Fractional coordinates (reciprocal lattice)
     0.027089253  0.015657286 -0.000005678     0.166666667 -0.000000000  0.000000000
     0.000013958  0.031290400 -0.000005869     0.000000000  0.166666667  0.000000000
    -0.000001089 -0.000002017  0.010955960     0.000000000 -0.000000000  0.250000000

  Length of vectors
     0.031288629  0.031290404  0.010955960

  Shift w.r.t. Gamma in fractional coordinates (k-lattice)
     0.500000000  0.500000000  0.500000000

 
 Subroutine IBZKPT returns following result:
 ===========================================
 
 Found     72 irreducible k-points:
 
 Following reciprocal coordinates:
            Coordinates               Weight
  0.083333  0.083333  0.125000      2.000000
  0.250000  0.083333  0.125000      2.000000
  0.416667  0.083333  0.125000      2.000000
 -0.416667  0.083333  0.125000      2.000000
 -0.250000  0.083333  0.125000      2.000000
 -0.083333  0.083333  0.125000      2.000000
  0.083333  0.250000  0.125000      2.000000
  0.250000  0.250000  0.125000      2.000000
  0.416667  0.250000  0.125000      2.000000
 -0.416667  0.250000  0.125000      2.000000
 -0.250000  0.250000  0.125000      2.000000
 -0.083333  0.250000  0.125000      2.000000
  0.083333  0.416667  0.125000      2.000000
  0.250000  0.416667  0.125000      2.000000
  0.416667  0.416667  0.125000      2.000000
 -0.416667  0.416667  0.125000      2.000000
 -0.250000  0.416667  0.125000      2.000000
 -0.083333  0.416667  0.125000      2.000000
  0.083333 -0.416667  0.125000      2.000000
  0.250000 -0.416667  0.125000      2.000000
  0.416667 -0.416667  0.125000      2.000000
 -0.416667 -0.416667  0.125000      2.000000
 -0.250000 -0.416667  0.125000      2.000000
 -0.083333 -0.416667  0.125000      2.000000
  0.083333 -0.250000  0.125000      2.000000
  0.250000 -0.250000  0.125000      2.000000
  0.416667 -0.250000  0.125000      2.000000
 -0.416667 -0.250000  0.125000      2.000000
 -0.250000 -0.250000  0.125000      2.000000
 -0.083333 -0.250000  0.125000      2.000000
  0.083333 -0.083333  0.125000      2.000000
  0.250000 -0.083333  0.125000      2.000000
  0.416667 -0.083333  0.125000      2.000000
 -0.416667 -0.083333  0.125000      2.000000
 -0.250000 -0.083333  0.125000      2.000000
 -0.083333 -0.083333  0.125000      2.000000
  0.083333  0.083333  0.375000      2.000000
  0.250000  0.083333  0.375000      2.000000
  0.416667  0.083333  0.375000      2.000000
 -0.416667  0.083333  0.375000      2.000000
 -0.250000  0.083333  0.375000      2.000000
 -0.083333  0.083333  0.375000      2.000000
  0.083333  0.250000  0.375000      2.000000
  0.250000  0.250000  0.375000      2.000000
  0.416667  0.250000  0.375000      2.000000
 -0.416667  0.250000  0.375000      2.000000
 -0.250000  0.250000  0.375000      2.000000
 -0.083333  0.250000  0.375000      2.000000
  0.083333  0.416667  0.375000      2.000000
  0.250000  0.416667  0.375000      2.000000
  0.416667  0.416667  0.375000      2.000000
 -0.416667  0.416667  0.375000      2.000000
 -0.250000  0.416667  0.375000      2.000000
 -0.083333  0.416667  0.375000      2.000000
  0.083333 -0.416667  0.375000      2.000000
  0.250000 -0.416667  0.375000      2.000000
  0.416667 -0.416667  0.375000      2.000000
 -0.416667 -0.416667  0.375000      2.000000
 -0.250000 -0.416667  0.375000      2.000000
 -0.083333 -0.416667  0.375000      2.000000
  0.083333 -0.250000  0.375000      2.000000
  0.250000 -0.250000  0.375000      2.000000
  0.416667 -0.250000  0.375000      2.000000
 -0.416667 -0.250000  0.375000      2.000000
 -0.250000 -0.250000  0.375000      2.000000
 -0.083333 -0.250000  0.375000      2.000000
  0.083333 -0.083333  0.375000      2.000000
  0.250000 -0.083333  0.375000      2.000000
  0.416667 -0.083333  0.375000      2.000000
 -0.416667 -0.083333  0.375000      2.000000
 -0.250000 -0.083333  0.375000      2.000000
 -0.083333 -0.083333  0.375000      2.000000
 
 Following cartesian coordinates:
            Coordinates               Weight
  0.013551  0.023473  0.005472      2.000000
  0.040640  0.039130  0.005467      2.000000
  0.067730  0.054787  0.005461      2.000000
 -0.067717 -0.023499  0.005489      2.000000
 -0.040627 -0.007842  0.005484      2.000000
 -0.013538  0.007816  0.005478      2.000000
  0.013565  0.054763  0.005466      2.000000
  0.040654  0.070421  0.005461      2.000000
  0.067744  0.086078  0.005455      2.000000
 -0.067703  0.007791  0.005483      2.000000
 -0.040613  0.023449  0.005478      2.000000
 -0.013524  0.039106  0.005472      2.000000
  0.013579  0.086054  0.005460      2.000000
  0.040668  0.101711  0.005455      2.000000
  0.067757  0.117368  0.005449      2.000000
 -0.067689  0.039082  0.005478      2.000000
 -0.040600  0.054739  0.005472      2.000000
 -0.013510  0.070396  0.005466      2.000000
  0.013509 -0.070398  0.005490      2.000000
  0.040598 -0.054741  0.005484      2.000000
  0.067688 -0.039084  0.005478      2.000000
 -0.067759 -0.117370  0.005507      2.000000
 -0.040669 -0.101713  0.005501      2.000000
 -0.013580 -0.086056  0.005495      2.000000
  0.013523 -0.039108  0.005484      2.000000
  0.040612 -0.023451  0.005478      2.000000
  0.067702 -0.007793  0.005473      2.000000
 -0.067745 -0.086080  0.005501      2.000000
 -0.040655 -0.070423  0.005495      2.000000
 -0.013566 -0.054765  0.005490      2.000000
  0.013537 -0.007818  0.005478      2.000000
  0.040626  0.007840  0.005472      2.000000
  0.067716  0.023497  0.005467      2.000000
 -0.067731 -0.054789  0.005495      2.000000
 -0.040641 -0.039132  0.005489      2.000000
 -0.013552 -0.023475  0.005484      2.000000
  0.013550  0.023471  0.016428      2.000000
  0.040639  0.039128  0.016422      2.000000
  0.067728  0.054785  0.016417      2.000000
 -0.067718 -0.023501  0.016445      2.000000
 -0.040629 -0.007844  0.016440      2.000000
 -0.013539  0.007814  0.016434      2.000000
  0.013564  0.054761  0.016422      2.000000
  0.040653  0.070419  0.016417      2.000000
  0.067742  0.086076  0.016411      2.000000
 -0.067704  0.007789  0.016439      2.000000
 -0.040615  0.023447  0.016434      2.000000
 -0.013525  0.039104  0.016428      2.000000
  0.013578  0.086052  0.016416      2.000000
  0.040667  0.101709  0.016411      2.000000
  0.067756  0.117366  0.016405      2.000000
 -0.067690  0.039080  0.016433      2.000000
 -0.040601  0.054737  0.016428      2.000000
 -0.013511  0.070394  0.016422      2.000000
  0.013508 -0.070400  0.016446      2.000000
  0.040597 -0.054743  0.016440      2.000000
  0.067687 -0.039086  0.016434      2.000000
 -0.067760 -0.117372  0.016463      2.000000
 -0.040670 -0.101715  0.016457      2.000000
 -0.013581 -0.086058  0.016451      2.000000
  0.013522 -0.039110  0.016440      2.000000
  0.040611 -0.023453  0.016434      2.000000
  0.067701 -0.007795  0.016429      2.000000
 -0.067746 -0.086082  0.016457      2.000000
 -0.040656 -0.070425  0.016451      2.000000
 -0.013567 -0.054767  0.016446      2.000000
  0.013536 -0.007820  0.016434      2.000000
  0.040625  0.007838  0.016428      2.000000
  0.067715  0.023495  0.016423      2.000000
 -0.067732 -0.054791  0.016451      2.000000
 -0.040642 -0.039134  0.016445      2.000000
 -0.013553 -0.023477  0.016440      2.000000
 


--------------------------------------------------------------------------------------------------------




 Dimension of arrays:
   k-points           NKPTS =     72   k-points in BZ     NKDIM =     72   number of bands    NBANDS=     42
   number of dos      NEDOS =    301   number of ions     NIONS =      8
   non local maximal  LDIM  =      6   non local SUM 2l+1 LMDIM =     18
   total plane-waves  NPLWV = 387072
   max r-space proj   IRMAX =      1   max aug-charges    IRDMAX=  26633
   dimension x,y,z NGX =    48 NGY =   48 NGZ =  168
   dimension x,y,z NGXF=    96 NGYF=   96 NGZF=  336
   support grid    NGXF=    96 NGYF=   96 NGZF=  336
   ions per type =               2   6
   NGX,Y,Z   is equivalent  to a cutoff of  12.97, 12.97, 12.24 a.u.
   NGXF,Y,Z  is equivalent  to a cutoff of  25.93, 25.93, 24.48 a.u.

 SYSTEM =  unknown system                          
 POSCAR =                                          

 Startparameter for this run:
   NWRITE =      2    write-flag & timer
   PREC   = accura    normal or accurate (medium, high low for compatibility)
   ISTART =      0    job   : 0-new  1-cont  2-samecut
   ICHARG =      2    charge: 1-file 2-atom 10-const
   ISPIN  =      2    spin polarized calculation?
   LNONCOLLINEAR =      F non collinear calculations
   LSORBIT =      F    spin-orbit coupling
   INIWAV =      1    electr: 0-lowe 1-rand  2-diag
   LASPH  =      F    aspherical Exc in radial PAW
 Electronic Relaxation 1
   ENCUT  =  500.0 eV  36.75 Ry    6.06 a.u.  11.22 11.22 41.60*2*pi/ulx,y,z
   ENINI  =  500.0     initial cutoff
   ENAUG  =  402.1 eV  augmentation charge cutoff
   NELM   =     60;   NELMIN=  2; NELMDL= -5     # of ELM steps 
   EDIFF  = 0.1E-05   stopping-criterion for ELM
   LREAL  =      F    real-space projection
   NLSPLINE    = F    spline interpolate recip. space projectors
   LCOMPAT=      F    compatible to vasp.4.4
   GGA_COMPAT  = T    GGA compatible to vasp.4.4-vasp.4.6
   LMAXPAW     = -100 max onsite density
   LMAXMIX     =    2 max onsite mixed and CHGCAR
   VOSKOWN=      0    Vosko Wilk Nusair interpolation
   ROPT   =    0.00000   0.00000
 Ionic relaxation
   EDIFFG = 0.1E-04   stopping-criterion for IOM
   NSW    =      0    number of steps for IOM
   NBLOCK =      1;   KBLOCK =      1    inner block; outer block 
   IBRION =     -1    ionic relax: 0-MD 1-quasi-New 2-CG
   NFREE  =      0    steps in history (QN), initial steepest desc. (CG)
   ISIF   =      2    stress and relaxation
   IWAVPR =     10    prediction:  0-non 1-charg 2-wave 3-comb
   ISYM   =      0    0-nonsym 1-usesym 2-fastsym
   LCORR  =      T    Harris-Foulkes like correction to forces

   POTIM  = 0.5000    time-step for ionic-motion
   TEIN   =    0.0    initial temperature
   TEBEG  =    0.0;   TEEND  =   0.0 temperature during run
   SMASS  =  -3.00    Nose mass-parameter (am)
   estimated Nose-frequenzy (Omega)   =  0.10E-29 period in steps = 0.13E+47 mass=  -0.865E-27a.u.
   SCALEE = 1.0000    scale energy and forces
   NPACO  =    256;   APACO  = 10.0  distance and # of slots for P.C.
   PSTRESS=    0.0 pullay stress

  Mass of Ions in am
   POMASS =  52.00 35.45
  Ionic Valenz
   ZVAL   =   6.00  7.00
  Atomic Wigner-Seitz radii
   RWIGS  =  -1.00 -1.00
  virtual crystal weights 
   VCA    =   1.00  1.00
   NELECT =      54.0000    total number of electrons
   NUPDOWN=      -1.0000    fix difference up-down

 DOS related values:
   EMIN   =  10.00;   EMAX   =-10.00  energy-range for DOS
   EFERMI =   0.00;   METHOD = LEGACY      
   ISMEAR =     0;   SIGMA  =   0.05  broadening in eV -4-tet -1-fermi 0-gaus
   EFERMI_NEDOS =   21; number of points for ismear=-14 and -15

 Electronic relaxation 2 (details)
   IALGO  =     38    algorithm
   LDIAG  =      T    sub-space diagonalisation (order eigenvalues)
   LSUBROT=      F    optimize rotation matrix (better conditioning)
   LROBUST=      F    robust break criterion during scf (extrapolated energy error)
   ISEARCH=      0    line search for conjugate gradient (0, 1=use gradient)
   TURBO    =      0    0=normal 1=particle mesh
   IRESTART =      0    0=no restart 2=restart with 2 vectors
   NREBOOT  =      0    no. of reboots
   NMIN     =      0    reboot dimension
   EREF     =   0.00    reference energy to select bands
   IMIX   =      4    mixing-type and parameters
     AMIX     =   0.40;   BMIX     =  1.00
     AMIX_MAG =   1.60;   BMIX_MAG =  1.00
     AMIN     =   0.10
     WC   =   100.;   INIMIX=   1;  MIXPRE=   1;  MAXMIX= -45

 Intra band minimization:
   WEIMIN = 0.0000     energy-eigenvalue tresh-hold
   EBREAK =  0.60E-08  absolut break condition
   DEPER  =   0.30     relativ break condition  

   TIME   =   0.40     timestep for ELM

  volume/ion in A,a.u.               =      93.50       630.95
  Fermi-wavevector in a.u.,A,eV,Ry     =   0.681673  1.288174  6.322320  0.464677
  Thomas-Fermi vector in A             =   1.760523
 
 Write flags
   LWAVE        =      F    write WAVECAR
   LDOWNSAMPLE  =      F    k-point downsampling of WAVECAR
   LCHARG       =      F    write CHGCAR
   LVTOT        =      F    write LOCPOT, total local potential
   LVHAR        =      F    write LOCPOT, Hartree potential only
   WRT_POTENTIAL= false  ! write potential to hdf5 file
   LELF         =      F    write electronic localiz. function (ELF)
   LORBIT       =      0    0 simple, 1 ext, 2 COOP (PROOUT), +10 PAW based schemes


 Python interface
   PLUGINS active      =      F    recompile with -DPLUGINS to activate
 
 Dipole corrections
   LMONO      =      F    monopole corrections only (constant potential shift)
   LDIPOL     =      F    correct potential (dipole corrections)
   IDIPOL     =      0    1-x, 2-y, 3-z, 4-all directions 
   EPSILON    =  1.0000000 bulk dielectric constant
   LVACPOTAV  =      F  vacuum potentials using an averaging scheme for the charge density
   VACPOTFLAT =  0.1000000 required flatness to determine vacuum potential
 
Coulomb truncation method
  LTRUNCATE          =      F  Coulomb kernel truncation to be used

 
 Exchange correlation treatment:
   GGA     = PE    functional components
   XC_C    = 1    coefficients multiplying the functional components
   LIBXC   =     F    Libxc                    
   VOSKOWN =     0    Vosko Wilk Nusair interpolation
   LHFCALC =     F    Hartree Fock is set to
   LHFONE  =     F    Hartree Fock one center treatment
   AEXX    =    0.0000 exact exchange contribution

 Parameters of functionals:
   PE:
     No parameter
 
 Van der Waals corrections
   IVDW    =     0    specifies the selected vdW correction

 Linear response parameters
   LEPSILON=     F    determine dielectric tensor
   LRPA    =     F    only Hartree local field effects (RPA)
   LNABLA  =     F    use nabla operator in PAW spheres
   LVEL    =     F    velocity operator in full k-point grid
   CSHIFT  =0.1000    complex shift for real part using Kramers Kronig
   OMEGAMAX=  -1.0    maximum frequency
   DEG_THRESHOLD= 0.2000000E-02 threshold for treating states as degnerate
   RTIME   =   -0.100 relaxation time in fs
  (WPLASMAI=    0.000 imaginary part of plasma frequency in eV, 0.658/RTIME)
   DFIELD  = 0.0000000 0.0000000 0.0000000 field for delta impulse in time
 
  Optional k-point grid parameters
   LKPOINTS_OPT  =     F    use optional k-point grid
   KPOINTS_OPT_MODE=     1    mode for optional k-point grid
 
 Orbital magnetization related:
   ORBITALMAG=     F  switch on orbital magnetization
   LCHIMAG   =     F  perturbation theory with respect to B field
   DQ        =  0.001000  dq finite difference perturbation B field
   LLRAUG    =     F  two centre corrections for induced B field
   LBONE     =     F  B-component reconstruction in AE one-centre
   LVGVCALC  =     T  calculate vGv susceptibility
   LVGVAPPL  =     F  apply vGv susceptibility instead of pGv for G=0

 Random number generation:
   RANDOM_GENERATOR = DEFAULT
   PCG_SEED         = not used


--------------------------------------------------------------------------------------------------------


 Static calculation
 charge density and potential will be updated during run
 spin polarized calculation
 Variant of blocked Davidson
 Davidson routine will perform the subspace rotation
 perform sub-space diagonalisation
    after iterative eigenvector-optimisation
 modified Broyden-mixing scheme, WC =      100.0
 initial mixing is a Kerker type mixing with AMIX =  0.4000 and BMIX =      1.0000
 Hartree-type preconditioning will be used
 using additional bands           15
 reciprocal scheme for non local part
 use partial core corrections
 calculate Harris-corrections to forces 
   (improved forces if not selfconsistent)
 use gradient corrections 
 use of overlap-Matrix (Vanderbilt PP)
 Gauss-broadening in eV      SIGMA  =   0.05


--------------------------------------------------------------------------------------------------------


  energy-cutoff  :      500.00
  volume of cell :      747.98
      direct lattice vectors                 reciprocal lattice vectors
     6.154088000 -0.002745000  0.000611000     0.162535521  0.093943719 -0.000034071
    -3.079421000  5.327821000  0.000675000     0.000083745  0.187742402 -0.000035214
     0.002310000  0.004279000 22.818631000    -0.000004355 -0.000008069  0.043823840

  length of vectors
     6.154088643  6.153739575 22.818631518     0.187731774  0.187742424  0.043823841


 
 k-points in units of 2pi/SCALE and weight: Automatic mesh                          
   0.01355106  0.02347283  0.00547221       0.014
   0.04064031  0.03913012  0.00546653       0.014
   0.06772957  0.05478741  0.00546085       0.014
  -0.06771670 -0.02349902  0.00548924       0.014
  -0.04062745 -0.00784174  0.00548356       0.014
  -0.01353819  0.00781555  0.00547788       0.014
   0.01356502  0.05476324  0.00546634       0.014
   0.04065427  0.07042052  0.00546066       0.014
   0.06774353  0.08607781  0.00545498       0.014
  -0.06770274  0.00779138  0.00548337       0.014
  -0.04061349  0.02344866  0.00547769       0.014
  -0.01352423  0.03910595  0.00547202       0.014
   0.01357898  0.08605364  0.00546047       0.014
   0.04066823  0.10171092  0.00545479       0.014
   0.06775748  0.11736821  0.00544911       0.014
  -0.06768878  0.03908178  0.00547750       0.014
  -0.04059953  0.05473906  0.00547183       0.014
  -0.01351028  0.07039635  0.00546615       0.014
   0.01350919 -0.07039837  0.00548981       0.014
   0.04059844 -0.05474108  0.00548414       0.014
   0.06768770 -0.03908379  0.00547846       0.014
  -0.06775857 -0.11737023  0.00550685       0.014
  -0.04066932 -0.10171294  0.00550117       0.014
  -0.01358006 -0.08605565  0.00549549       0.014
   0.01352315 -0.03910797  0.00548394       0.014
   0.04061240 -0.02345068  0.00547827       0.014
   0.06770165 -0.00779339  0.00547259       0.014
  -0.06774461 -0.08607983  0.00550098       0.014
  -0.04065536 -0.07042254  0.00549530       0.014
  -0.01356611 -0.05476525  0.00548962       0.014
   0.01353710 -0.00781757  0.00547808       0.014
   0.04062636  0.00783972  0.00547240       0.014
   0.06771561  0.02349701  0.00546672       0.014
  -0.06773066 -0.05478942  0.00549511       0.014
  -0.04064140 -0.03913214  0.00548943       0.014
  -0.01355215 -0.02347485  0.00548375       0.014
   0.01354997  0.02347082  0.01642817       0.014
   0.04063923  0.03912810  0.01642249       0.014
   0.06772848  0.05478539  0.01641681       0.014
  -0.06771779 -0.02350104  0.01644520       0.014
  -0.04062853 -0.00784376  0.01643952       0.014
  -0.01353928  0.00781353  0.01643384       0.014
   0.01356393  0.05476122  0.01642230       0.014
   0.04065318  0.07041850  0.01641662       0.014
   0.06774244  0.08607579  0.01641094       0.014
  -0.06770383  0.00778936  0.01643933       0.014
  -0.04061458  0.02344664  0.01643365       0.014
  -0.01352532  0.03910393  0.01642798       0.014
   0.01357789  0.08605162  0.01641643       0.014
   0.04066714  0.10170890  0.01641075       0.014
   0.06775639  0.11736619  0.01640507       0.014
  -0.06768987  0.03907976  0.01643346       0.014
  -0.04060062  0.05473705  0.01642779       0.014
  -0.01351137  0.07039433  0.01642211       0.014
   0.01350810 -0.07040038  0.01644577       0.014
   0.04059735 -0.05474310  0.01644010       0.014
   0.06768661 -0.03908581  0.01643442       0.014
  -0.06775966 -0.11737224  0.01646281       0.014
  -0.04067041 -0.10171496  0.01645713       0.014
  -0.01358115 -0.08605767  0.01645145       0.014
   0.01352206 -0.03910998  0.01643990       0.014
   0.04061131 -0.02345270  0.01643423       0.014
   0.06770056 -0.00779541  0.01642855       0.014
  -0.06774570 -0.08608184  0.01645694       0.014
  -0.04065645 -0.07042456  0.01645126       0.014
  -0.01356720 -0.05476727  0.01644558       0.014
   0.01353601 -0.00781958  0.01643404       0.014
   0.04062527  0.00783770  0.01642836       0.014
   0.06771452  0.02349499  0.01642268       0.014
  -0.06773175 -0.05479144  0.01645107       0.014
  -0.04064249 -0.03913416  0.01644539       0.014
  -0.01355324 -0.02347687  0.01643971       0.014
 
 k-points in reciprocal lattice and weights: Automatic mesh                          
   0.08333333  0.08333333  0.12500000       0.014
   0.25000000  0.08333333  0.12500000       0.014
   0.41666667  0.08333333  0.12500000       0.014
  -0.41666667  0.08333333  0.12500000       0.014
  -0.25000000  0.08333333  0.12500000       0.014
  -0.08333333  0.08333333  0.12500000       0.014
   0.08333333  0.25000000  0.12500000       0.014
   0.25000000  0.25000000  0.12500000       0.014
   0.41666667  0.25000000  0.12500000       0.014
  -0.41666667  0.25000000  0.12500000       0.014
  -0.25000000  0.25000000  0.12500000       0.014
  -0.08333333  0.25000000  0.12500000       0.014
   0.08333333  0.41666667  0.12500000       0.014
   0.25000000  0.41666667  0.12500000       0.014
   0.41666667  0.41666667  0.12500000       0.014
  -0.41666667  0.41666667  0.12500000       0.014
  -0.25000000  0.41666667  0.12500000       0.014
  -0.08333333  0.41666667  0.12500000       0.014
   0.08333333 -0.41666667  0.12500000       0.014
   0.25000000 -0.41666667  0.12500000       0.014
   0.41666667 -0.41666667  0.12500000       0.014
  -0.41666667 -0.41666667  0.12500000       0.014
  -0.25000000 -0.41666667  0.12500000       0.014
  -0.08333333 -0.41666667  0.12500000       0.014
   0.08333333 -0.25000000  0.12500000       0.014
   0.25000000 -0.25000000  0.12500000       0.014
   0.41666667 -0.25000000  0.12500000       0.014
  -0.41666667 -0.25000000  0.12500000       0.014
  -0.25000000 -0.25000000  0.12500000       0.014
  -0.08333333 -0.25000000  0.12500000       0.014
   0.08333333 -0.08333333  0.12500000       0.014
   0.25000000 -0.08333333  0.12500000       0.014
   0.41666667 -0.08333333  0.12500000       0.014
  -0.41666667 -0.08333333  0.12500000       0.014
  -0.25000000 -0.08333333  0.12500000       0.014
  -0.08333333 -0.08333333  0.12500000       0.014
   0.08333333  0.08333333  0.37500000       0.014
   0.25000000  0.08333333  0.37500000       0.014
   0.41666667  0.08333333  0.37500000       0.014
  -0.41666667  0.08333333  0.37500000       0.014
  -0.25000000  0.08333333  0.37500000       0.014
  -0.08333333  0.08333333  0.37500000       0.014
   0.08333333  0.25000000  0.37500000       0.014
   0.25000000  0.25000000  0.37500000       0.014
   0.41666667  0.25000000  0.37500000       0.014
  -0.41666667  0.25000000  0.37500000       0.014
  -0.25000000  0.25000000  0.37500000       0.014
  -0.08333333  0.25000000  0.37500000       0.014
   0.08333333  0.41666667  0.37500000       0.014
   0.25000000  0.41666667  0.37500000       0.014
   0.41666667  0.41666667  0.37500000       0.014
  -0.41666667  0.41666667  0.37500000       0.014
  -0.25000000  0.41666667  0.37500000       0.014
  -0.08333333  0.41666667  0.37500000       0.014
   0.08333333 -0.41666667  0.37500000       0.014
   0.25000000 -0.41666667  0.37500000       0.014
   0.41666667 -0.41666667  0.37500000       0.014
  -0.41666667 -0.41666667  0.37500000       0.014
  -0.25000000 -0.41666667  0.37500000       0.014
  -0.08333333 -0.41666667  0.37500000       0.014
   0.08333333 -0.25000000  0.37500000       0.014
   0.25000000 -0.25000000  0.37500000       0.014
   0.41666667 -0.25000000  0.37500000       0.014
  -0.41666667 -0.25000000  0.37500000       0.014
  -0.25000000 -0.25000000  0.37500000       0.014
  -0.08333333 -0.25000000  0.37500000       0.014
   0.08333333 -0.08333333  0.37500000       0.014
   0.25000000 -0.08333333  0.37500000       0.014
   0.41666667 -0.08333333  0.37500000       0.014
  -0.41666667 -0.08333333  0.37500000       0.014
  -0.25000000 -0.08333333  0.37500000       0.014
  -0.08333333 -0.08333333  0.37500000       0.014
 
 position of ions in fractional coordinates (direct lattice) 
   0.66667703  0.33331061  0.50000070
   0.99998926  0.00002187  0.50000053
   0.33311315  0.02907181  0.55799819
   0.97139074  0.30473277  0.55784902
   0.69575945  0.66644706  0.55800373
   0.69527690  0.02859586  0.44215010
   0.33355667  0.30426630  0.44200082
   0.97090416  0.66688184  0.44199540
 
 position of ions in cartesian coordinates  (Angst):
   3.07754040  1.77612875 11.40996369
   6.15510956 -0.00048895 11.40993861
   1.96177227  0.15636268 12.73297788
   5.04091221  1.62328222 12.73015015
   2.23078284  3.55118846 12.73375613
   4.19175790  0.15233707 10.08970404
   1.11679407  1.62205211 10.08626272
   3.92244070  3.55225322 10.08677332
 


--------------------------------------------------------------------------------------------------------


 k-point     1 :   0.0833 0.0833 0.1250  plane waves:   18977
 k-point     2 :   0.2500 0.0833 0.1250  plane waves:   18983
 k-point     3 :   0.4167 0.0833 0.1250  plane waves:   19003
 k-point     4 :  -0.4167 0.0833 0.1250  plane waves:   19000
 k-point     5 :  -0.2500 0.0833 0.1250  plane waves:   18973
 k-point     6 :  -0.0833 0.0833 0.1250  plane waves:   18998
 k-point     7 :   0.0833 0.2500 0.1250  plane waves:   18981
 k-point     8 :   0.2500 0.2500 0.1250  plane waves:   18979
 k-point     9 :   0.4167 0.2500 0.1250  plane waves:   19006
 k-point    10 :  -0.4167 0.2500 0.1250  plane waves:   18977
 k-point    11 :  -0.2500 0.2500 0.1250  plane waves:   18968
 k-point    12 :  -0.0833 0.2500 0.1250  plane waves:   18969
 k-point    13 :   0.0833 0.4167 0.1250  plane waves:   19003
 k-point    14 :   0.2500 0.4167 0.1250  plane waves:   19007
 k-point    15 :   0.4167 0.4167 0.1250  plane waves:   18998
 k-point    16 :  -0.4167 0.4167 0.1250  plane waves:   18978
 k-point    17 :  -0.2500 0.4167 0.1250  plane waves:   18977
 k-point    18 :  -0.0833 0.4167 0.1250  plane waves:   19000
 k-point    19 :   0.0833-0.4167 0.1250  plane waves:   19000
 k-point    20 :   0.2500-0.4167 0.1250  plane waves:   18977
 k-point    21 :   0.4167-0.4167 0.1250  plane waves:   18979
 k-point    22 :  -0.4167-0.4167 0.1250  plane waves:   19005
 k-point    23 :  -0.2500-0.4167 0.1250  plane waves:   19009
 k-point    24 :  -0.0833-0.4167 0.1250  plane waves:   19002
 k-point    25 :   0.0833-0.2500 0.1250  plane waves:   18972
 k-point    26 :   0.2500-0.2500 0.1250  plane waves:   18970
 k-point    27 :   0.4167-0.2500 0.1250  plane waves:   18976
 k-point    28 :  -0.4167-0.2500 0.1250  plane waves:   19008
 k-point    29 :  -0.2500-0.2500 0.1250  plane waves:   18972
 k-point    30 :  -0.0833-0.2500 0.1250  plane waves:   18982
 k-point    31 :   0.0833-0.0833 0.1250  plane waves:   18998
 k-point    32 :   0.2500-0.0833 0.1250  plane waves:   18969
 k-point    33 :   0.4167-0.0833 0.1250  plane waves:   19000
 k-point    34 :  -0.4167-0.0833 0.1250  plane waves:   19001
 k-point    35 :  -0.2500-0.0833 0.1250  plane waves:   18982
 k-point    36 :  -0.0833-0.0833 0.1250  plane waves:   18983
 k-point    37 :   0.0833 0.0833 0.3750  plane waves:   18984
 k-point    38 :   0.2500 0.0833 0.3750  plane waves:   18973
 k-point    39 :   0.4167 0.0833 0.3750  plane waves:   19006
 k-point    40 :  -0.4167 0.0833 0.3750  plane waves:   18990
 k-point    41 :  -0.2500 0.0833 0.3750  plane waves:   18967
 k-point    42 :  -0.0833 0.0833 0.3750  plane waves:   19011
 k-point    43 :   0.0833 0.2500 0.3750  plane waves:   18974
 k-point    44 :   0.2500 0.2500 0.3750  plane waves:   19000
 k-point    45 :   0.4167 0.2500 0.3750  plane waves:   19012
 k-point    46 :  -0.4167 0.2500 0.3750  plane waves:   18985
 k-point    47 :  -0.2500 0.2500 0.3750  plane waves:   18986
 k-point    48 :  -0.0833 0.2500 0.3750  plane waves:   18969
 k-point    49 :   0.0833 0.4167 0.3750  plane waves:   19008
 k-point    50 :   0.2500 0.4167 0.3750  plane waves:   19010
 k-point    51 :   0.4167 0.4167 0.3750  plane waves:   18997
 k-point    52 :  -0.4167 0.4167 0.3750  plane waves:   18971
 k-point    53 :  -0.2500 0.4167 0.3750  plane waves:   18976
 k-point    54 :  -0.0833 0.4167 0.3750  plane waves:   18991
 k-point    55 :   0.0833-0.4167 0.3750  plane waves:   18989
 k-point    56 :   0.2500-0.4167 0.3750  plane waves:   18984
 k-point    57 :   0.4167-0.4167 0.3750  plane waves:   18973
 k-point    58 :  -0.4167-0.4167 0.3750  plane waves:   18993
 k-point    59 :  -0.2500-0.4167 0.3750  plane waves:   19013
 k-point    60 :  -0.0833-0.4167 0.3750  plane waves:   19005
 k-point    61 :   0.0833-0.2500 0.3750  plane waves:   18967
 k-point    62 :   0.2500-0.2500 0.3750  plane waves:   18987
 k-point    63 :   0.4167-0.2500 0.3750  plane waves:   18978
 k-point    64 :  -0.4167-0.2500 0.3750  plane waves:   19013
 k-point    65 :  -0.2500-0.2500 0.3750  plane waves:   18997
 k-point    66 :  -0.0833-0.2500 0.3750  plane waves:   18969
 k-point    67 :   0.0833-0.0833 0.3750  plane waves:   19010
 k-point    68 :   0.2500-0.0833 0.3750  plane waves:   18969
 k-point    69 :   0.4167-0.0833 0.3750  plane waves:   18989
 k-point    70 :  -0.4167-0.0833 0.3750  plane waves:   19005
 k-point    71 :  -0.2500-0.0833 0.3750  plane waves:   18969
 k-point    72 :  -0.0833-0.0833 0.3750  plane waves:   18983

 maximum and minimum number of plane-waves per node :     19013    18967

 maximum number of plane-waves:     19013
 maximum index in each direction: 
   IXMAX=   11   IYMAX=   11   IZMAX=   41
   IXMIN=  -11   IYMIN=  -11   IZMIN=  -41


 serial   3D FFT for wavefunctions
 parallel 3D FFT for charge:
    minimum data exchange during FFTs selected (reduces bandwidth)


 total amount of memory used by VASP MPI-rank0   514721. kBytes
=======================================================================

   base                                    :      30000. kBytes
   nonl-proj                               :     396958. kBytes
   fftplans                                :       4669. kBytes
   grid                                    :      38817. kBytes
   one-center                              :        248. kBytes
   wavefun                                 :      44029. kBytes
 
     INWAV:  cpu time      0.0000: real time      0.0000
 Broyden mixing: mesh for mixing (old mesh)
   NGX = 23   NGY = 23   NGZ = 83
  (NGX  = 96   NGY  = 96   NGZ  =336)
  gives a total of  43907 points

 initial charge density was supplied:
 charge density of overlapping atoms calculated
 number of electron      54.0000000 magnetization       9.6000000
 keeping initial charge density in first step


--------------------------------------------------------------------------------------------------------


 Maximum index for augmentation-charges         1548 (set IRDMAX)


--------------------------------------------------------------------------------------------------------


 First call to EWALD:  gamma=   0.195
 Maximum number of real-space cells   4x   4x   1
 Maximum number of reciprocal cells   2x   2x   6

    FEWALD:  cpu time      0.1039: real time      0.2079


--------------------------------------- Ionic step        1  -------------------------------------------




--------------------------------------- Iteration      1(   1)  ---------------------------------------


    POTLOK:  cpu time      1.8715: real time      3.7366
    SETDIJ:  cpu time      0.3114: real time      0.6335
     EDDAV:  cpu time    226.9354: real time    453.9000
       DOS:  cpu time      0.9859: real time      1.9740
    --------------------------------------------
      LOOP:  cpu time    230.1042: real time    460.2441

 eigenvalue-minimisations  : 12096
 total energy-change (2. order) : 0.4333998E+03  (-0.1814905E+04)
 number of electron      54.0000000 magnetization       9.6000000
 augmentation part       54.0000000 magnetization       9.6000000

 Free energy of the ion-electron system (eV)
  ---------------------------------------------------
  alpha Z        PSCENC =        23.01523305
  Ewald energy   TEWEN  =      7673.06934580
  -Hartree energ DENC   =    -10328.30805651
  -exchange      EXHF   =         0.00000000
  -V(xc)+E(xc)   XCENC  =        82.57734315
  PAW double counting   =      2504.62862977    -2465.96035111
  entropy T*S    EENTRO =        -0.01003312
  eigenvalues    EBANDS =       -67.71902857
  atomic energy  EATOM  =      3012.10669636
  Solvation  Ediel_sol  =         0.00000000
  ---------------------------------------------------
  free energy    TOTEN  =       433.39977883 eV

  energy without entropy =      433.40981195  energy(sigma->0) =      433.40479539


--------------------------------------------------------------------------------------------------------




--------------------------------------- Iteration      1(   2)  ---------------------------------------


     EDDAV:  cpu time    318.7657: real time    637.5830
       DOS:  cpu time      0.7970: real time      1.5961
    --------------------------------------------
      LOOP:  cpu time    319.5626: real time    639.1791

 eigenvalue-minimisations  : 19698
 total energy-change (2. order) :-0.4278111E+03  (-0.4263501E+03)
 number of electron      54.0000000 magnetization       9.6000000
 augmentation part       54.0000000 magnetization       9.6000000

 Free energy of the ion-electron system (eV)
  ---------------------------------------------------
  alpha Z        PSCENC =        23.01523305
  Ewald energy   TEWEN  =      7673.06934580
  -Hartree energ DENC   =    -10328.30805651
  -exchange      EXHF   =         0.00000000
  -V(xc)+E(xc)   XCENC  =        82.57734315
  PAW double counting   =      2504.62862977    -2465.96035111
  entropy T*S    EENTRO =        -0.00483497
  eigenvalues    EBANDS =      -495.53529440
  atomic energy  EATOM  =      3012.10669636
  Solvation  Ediel_sol  =         0.00000000
  ---------------------------------------------------
  free energy    TOTEN  =         5.58871114 eV

  energy without entropy =        5.59354612  energy(sigma->0) =        5.59112863


--------------------------------------------------------------------------------------------------------




--------------------------------------- Iteration      1(   3)  ---------------------------------------


     EDDAV:  cpu time    225.8055: real time    451.6549
       DOS:  cpu time      0.2020: real time      0.3920
    --------------------------------------------
      LOOP:  cpu time    226.0074: real time    452.0469

 eigenvalue-minimisations  : 12726
 total energy-change (2. order) :-0.4727990E+02  (-0.4668183E+02)
 number of electron      54.0000000 magnetization       9.6000000
 augmentation part       54.0000000 magnetization       9.6000000

 Free energy of the ion-electron system (eV)
  ---------------------------------------------------
  alpha Z        PSCENC =        23.01523305
  Ewald energy   TEWEN  =      7673.06934580
  -Hartree energ DENC   =    -10328.30805651
  -exchange      EXHF   =         0.00000000
  -V(xc)+E(xc)   XCENC  =        82.57734315
  PAW double counting   =      2504.62862977    -2465.96035111
  entropy T*S    EENTRO =        -0.00000000
  eigenvalues    EBANDS =      -542.82003185
  atomic energy  EATOM  =      3012.10669636
  Solvation  Ediel_sol  =         0.00000000
  ---------------------------------------------------
  free energy    TOTEN  =       -41.69119133 eV

  energy without entropy =      -41.69119133  energy(sigma->0) =      -41.69119133


--------------------------------------------------------------------------------------------------------




--------------------------------------- Iteration      1(   4)  ---------------------------------------


     EDDAV:  cpu time    361.1795: real time    722.4150
       DOS:  cpu time      0.1890: real time      0.3840
    --------------------------------------------
      LOOP:  cpu time    361.3685: real time    722.7990

 eigenvalue-minimisations  : 23478
 total energy-change (2. order) :-0.1094773E+01  (-0.1094773E+01)
 number of electron      54.0000000 magnetization       9.6000000
 augmentation part       54.0000000 magnetization       9.6000000

 Free energy of the ion-electron system (eV)
  ---------------------------------------------------
  alpha Z        PSCENC =        23.01523305
  Ewald energy   TEWEN  =      7673.06934580
  -Hartree energ DENC   =    -10328.30805651
  -exchange      EXHF   =         0.00000000
  -V(xc)+E(xc)   XCENC  =        82.57734315
  PAW double counting   =      2504.62862977    -2465.96035111
  entropy T*S    EENTRO =        -0.00000000
  eigenvalues    EBANDS =      -543.91480529
  atomic energy  EATOM  =      3012.10669636
  Solvation  Ediel_sol  =         0.00000000
  ---------------------------------------------------
  free energy    TOTEN  =       -42.78596477 eV

  energy without entropy =      -42.78596477  energy(sigma->0) =      -42.78596477


--------------------------------------------------------------------------------------------------------




--------------------------------------- Iteration      1(   5)  ---------------------------------------


     EDDAV:  cpu time    308.9220: real time    617.8850
       DOS:  cpu time      0.2020: real time      0.4101
    CHARGE:  cpu time      9.1726: real time     18.3481
    MIXING:  cpu time      0.1678: real time      0.3368
    --------------------------------------------
      LOOP:  cpu time    318.4644: real time    636.9800

 eigenvalue-minimisations  : 19824
 total energy-change (2. order) :-0.2175421E-02  (-0.2175421E-02)
 number of electron      53.9999988 magnetization       9.1940582
 augmentation part       -2.1195940 magnetization       6.5064467

 Broyden mixing:
  rms(total) = 0.20004E+01    rms(broyden)= 0.20004E+01
  rms(prec ) = 0.20947E+01
  weight for this iteration     100.00

 Free energy of the ion-electron system (eV)
  ---------------------------------------------------
  alpha Z        PSCENC =        23.01523305
  Ewald energy   TEWEN  =      7673.06934580
  -Hartree energ DENC   =    -10328.30805651
  -exchange      EXHF   =         0.00000000
  -V(xc)+E(xc)   XCENC  =        82.57734315
  PAW double counting   =      2504.62862977    -2465.96035111
  entropy T*S    EENTRO =        -0.00000000
  eigenvalues    EBANDS =      -543.91698071
  atomic energy  EATOM  =      3012.10669636
  Solvation  Ediel_sol  =         0.00000000
  ---------------------------------------------------
  free energy    TOTEN  =       -42.78814019 eV

  energy without entropy =      -42.78814019  energy(sigma->0) =      -42.78814019


--------------------------------------------------------------------------------------------------------




--------------------------------------- Iteration      1(   6)  ---------------------------------------


    POTLOK:  cpu time      1.8889: real time      3.7769
    SETDIJ:  cpu time      0.2681: real time      0.5411
     EDDAV:  cpu time    328.2626: real time    656.5760
       DOS:  cpu time      0.1971: real time      0.3922
    CHARGE:  cpu time      9.9208: real time     19.8411
    MIXING:  cpu time      0.4417: real time      0.8837
    --------------------------------------------
      LOOP:  cpu time    340.9791: real time    682.0110

 eigenvalue-minimisations  : 21000
 total energy-change (2. order) : 0.6269154E+01  (-0.1069641E+02)
 number of electron      53.9999988 magnetization       9.0157504
 augmentation part        0.9745532 magnetization       7.1283866

 Broyden mixing:
  rms(total) = 0.20422E+01    rms(broyden)= 0.20422E+01
  rms(prec ) = 0.21154E+01
  weight for this iteration     100.00

 eigenvalues of (default mixing * dielectric matrix)
  average eigenvalue GAMMA=   0.3587
  0.3587

 Free energy of the ion-electron system (eV)
  ---------------------------------------------------
  alpha Z        PSCENC =        23.01523305
  Ewald energy   TEWEN  =      7673.06934580
  -Hartree energ DENC   =    -10314.15401266
  -exchange      EXHF   =         0.00000000
  -V(xc)+E(xc)   XCENC  =        88.61103333
  PAW double counting   =      2836.77308211    -2794.16855924
  entropy T*S    EENTRO =        -0.00000000
  eigenvalues    EBANDS =      -561.77180464
  atomic energy  EATOM  =      3012.10669636
  Solvation  Ediel_sol  =         0.00000000
  ---------------------------------------------------
  free energy    TOTEN  =       -36.51898589 eV

  energy without entropy =      -36.51898589  energy(sigma->0) =      -36.51898589


--------------------------------------------------------------------------------------------------------




--------------------------------------- Iteration      1(   7)  ---------------------------------------


    POTLOK:  cpu time      1.9869: real time      3.9700
    SETDIJ:  cpu time      0.2661: real time      0.5391
     EDDAV:  cpu time    281.8783: real time    563.8000
       DOS:  cpu time      0.1819: real time      0.3589
    CHARGE:  cpu time      9.6606: real time     19.3178
    MIXING:  cpu time      0.4313: real time      0.8593
    --------------------------------------------
      LOOP:  cpu time    294.4050: real time    588.8450

 eigenvalue-minimisations  : 17220
 total energy-change (2. order) : 0.2051693E+01  (-0.3629029E+01)
 number of electron      53.9999988 magnetization       8.5936016
 augmentation part       -0.8040542 magnetization       6.6077066

 Broyden mixing:
  rms(total) = 0.94318E+00    rms(broyden)= 0.94318E+00
  rms(prec ) = 0.95105E+00
  weight for this iteration     100.00

 eigenvalues of (default mixing * dielectric matrix)
  average eigenvalue GAMMA=   0.7477
  1.1257  0.3697

 Free energy of the ion-electron system (eV)
  ---------------------------------------------------
  alpha Z        PSCENC =        23.01523305
  Ewald energy   TEWEN  =      7673.06934580
  -Hartree energ DENC   =    -10327.14566557
  -exchange      EXHF   =         0.00000000
  -V(xc)+E(xc)   XCENC  =        88.41390010
  PAW double counting   =      3028.29149119    -2988.86437970
  entropy T*S    EENTRO =        -0.00000000
  eigenvalues    EBANDS =      -543.35391458
  atomic energy  EATOM  =      3012.10669636
  Solvation  Ediel_sol  =         0.00000000
  ---------------------------------------------------
  free energy    TOTEN  =       -34.46729335 eV

  energy without entropy =      -34.46729335  energy(sigma->0) =      -34.46729335


--------------------------------------------------------------------------------------------------------




--------------------------------------- Iteration      1(   8)  ---------------------------------------


    POTLOK:  cpu time      1.9308: real time      3.8709
    SETDIJ:  cpu time      0.2401: real time      0.4871
     EDDAV:  cpu time    305.6024: real time    611.2510
       DOS:  cpu time      0.1951: real time      0.3901
    CHARGE:  cpu time     10.9206: real time     21.8396
    MIXING:  cpu time      0.3522: real time      0.6992
    --------------------------------------------
      LOOP:  cpu time    319.2413: real time    638.5510

 eigenvalue-minimisations  : 19362
 total energy-change (2. order) :-0.3530377E+00  (-0.8091322E-01)
 number of electron      53.9999988 magnetization       8.0919401
 augmentation part       -0.7141866 magnetization       6.1840230

 Broyden mixing:
  rms(total) = 0.41692E+00    rms(broyden)= 0.41692E+00
  rms(prec ) = 0.42435E+00
  weight for this iteration     100.00

 eigenvalues of (default mixing * dielectric matrix)
  average eigenvalue GAMMA=   1.0289
  1.9392  0.7359  0.4116

 Free energy of the ion-electron system (eV)
  ---------------------------------------------------
  alpha Z        PSCENC =        23.01523305
  Ewald energy   TEWEN  =      7673.06934580
  -Hartree energ DENC   =    -10333.28925573
  -exchange      EXHF   =         0.00000000
  -V(xc)+E(xc)   XCENC  =        88.72798102
  PAW double counting   =      3372.34317510    -3334.20870597
  entropy T*S    EENTRO =        -0.00000000
  eigenvalues    EBANDS =      -536.58480074
  atomic energy  EATOM  =      3012.10669636
  Solvation  Ediel_sol  =         0.00000000
  ---------------------------------------------------
  free energy    TOTEN  =       -34.82033109 eV

  energy without entropy =      -34.82033109  energy(sigma->0) =      -34.82033109


--------------------------------------------------------------------------------------------------------




--------------------------------------- Iteration      1(   9)  ---------------------------------------


    POTLOK:  cpu time      1.8942: real time      3.7983
    SETDIJ:  cpu time      0.2848: real time      0.5708
     EDDAV:  cpu time    312.7207: real time    625.4880
       DOS:  cpu time      0.2099: real time      0.4120
    CHARGE:  cpu time     10.9837: real time     21.9717
    MIXING:  cpu time      0.2442: real time      0.4903
    --------------------------------------------
      LOOP:  cpu time    326.3376: real time    652.7180

 eigenvalue-minimisations  : 20076
 total energy-change (2. order) :-0.1296699E+01  (-0.1267139E+00)
 number of electron      53.9999988 magnetization       7.8140392
 augmentation part       -0.4422205 magnetization       5.9752657

 Broyden mixing:
  rms(total) = 0.16834E+00    rms(broyden)= 0.16834E+00
  rms(prec ) = 0.17189E+00
  weight for this iteration     100.00

 eigenvalues of (default mixing * dielectric matrix)
  average eigenvalue GAMMA=   1.0984
  2.3489  0.9754  0.4213  0.6481

 Free energy of the ion-electron system (eV)
  ---------------------------------------------------
  alpha Z        PSCENC =        23.01523305
  Ewald energy   TEWEN  =      7673.06934580
  -Hartree energ DENC   =    -10337.93921959
  -exchange      EXHF   =         0.00000000
  -V(xc)+E(xc)   XCENC  =        88.28470188
  PAW double counting   =      3626.79394367    -3589.28175375
  entropy T*S    EENTRO =        -0.00000000
  eigenvalues    EBANDS =      -532.16597741
  atomic energy  EATOM  =      3012.10669636
  Solvation  Ediel_sol  =         0.00000000
  ---------------------------------------------------
  free energy    TOTEN  =       -36.11702999 eV

  energy without entropy =      -36.11702999  energy(sigma->0) =      -36.11702999


--------------------------------------------------------------------------------------------------------




--------------------------------------- Iteration      1(  10)  ---------------------------------------


    POTLOK:  cpu time      1.7388: real time      3.4759
    SETDIJ:  cpu time      0.2491: real time      0.5051
     EDDAV:  cpu time    312.9096: real time    625.8700
       DOS:  cpu time      0.2053: real time      0.4133
    CHARGE:  cpu time      9.5174: real time     19.0344
    MIXING:  cpu time      0.3983: real time      0.8013
    --------------------------------------------
      LOOP:  cpu time    325.0185: real time    650.1000

 eigenvalue-minimisations  : 20034
 total energy-change (2. order) :-0.7049419E+00  (-0.2386104E-01)
 number of electron      53.9999988 magnetization       7.4142068
 augmentation part       -0.5078387 magnetization       5.5596096

 Broyden mixing:
  rms(total) = 0.11594E+00    rms(broyden)= 0.11594E+00
  rms(prec ) = 0.11669E+00
  weight for this iteration     100.00

 eigenvalues of (default mixing * dielectric matrix)
  average eigenvalue GAMMA=   1.1122
  2.5209  1.2485  0.4194  0.7049  0.6676

 Free energy of the ion-electron system (eV)
  ---------------------------------------------------
  alpha Z        PSCENC =        23.01523305
  Ewald energy   TEWEN  =      7673.06934580
  -Hartree energ DENC   =    -10339.43856521
  -exchange      EXHF   =         0.00000000
  -V(xc)+E(xc)   XCENC  =        87.80392334
  PAW double counting   =      3665.06540770    -3627.83807686
  entropy T*S    EENTRO =        -0.00000000
  eigenvalues    EBANDS =      -530.60593606
  atomic energy  EATOM  =      3012.10669636
  Solvation  Ediel_sol  =         0.00000000
  ---------------------------------------------------
  free energy    TOTEN  =       -36.82197188 eV

  energy without entropy =      -36.82197188  energy(sigma->0) =      -36.82197188


--------------------------------------------------------------------------------------------------------




--------------------------------------- Iteration      1(  11)  ---------------------------------------


    POTLOK:  cpu time      1.8591: real time      3.7022
    SETDIJ:  cpu time      0.1858: real time      0.3848
     EDDAV:  cpu time    299.1093: real time    598.2630
       DOS:  cpu time      0.2162: real time      0.4362
    CHARGE:  cpu time     10.8311: real time     21.6598
    MIXING:  cpu time      0.4368: real time      0.8779
    --------------------------------------------
      LOOP:  cpu time    312.6384: real time    625.3240

 eigenvalue-minimisations  : 19278
 total energy-change (2. order) :-0.7639433E+00  (-0.2682096E-01)
 number of electron      53.9999988 magnetization       6.8771468
 augmentation part       -0.5486530 magnetization       5.0079474

 Broyden mixing:
  rms(total) = 0.90017E-01    rms(broyden)= 0.90017E-01
  rms(prec ) = 0.90607E-01
  weight for this iteration     100.00

 eigenvalues of (default mixing * dielectric matrix)
  average eigenvalue GAMMA=   1.2541
  2.7353  2.0200  1.0166  0.4192  0.6667  0.6667

 Free energy of the ion-electron system (eV)
  ---------------------------------------------------
  alpha Z        PSCENC =        23.01523305
  Ewald energy   TEWEN  =      7673.06934580
  -Hartree energ DENC   =    -10339.98073150
  -exchange      EXHF   =         0.00000000
  -V(xc)+E(xc)   XCENC  =        87.19580050
  PAW double counting   =      3691.99895564    -3654.88991895
  entropy T*S    EENTRO =        -0.00000000
  eigenvalues    EBANDS =      -530.10129613
  atomic energy  EATOM  =      3012.10669636
  Solvation  Ediel_sol  =         0.00000000
  ---------------------------------------------------
  free energy    TOTEN  =       -37.58591522 eV

  energy without entropy =      -37.58591522  energy(sigma->0) =      -37.58591522


--------------------------------------------------------------------------------------------------------




--------------------------------------- Iteration      1(  12)  ---------------------------------------


    POTLOK:  cpu time      2.0117: real time      4.0227
    SETDIJ:  cpu time      0.2423: real time      0.4883
     EDDAV:  cpu time    236.5155: real time    473.0620
       DOS:  cpu time      0.1946: real time      0.3886
    CHARGE:  cpu time     10.6129: real time     21.2321
    MIXING:  cpu time      0.5733: real time      1.1533
    --------------------------------------------
      LOOP:  cpu time    250.1501: real time    500.3470

 eigenvalue-minimisations  : 13944
 total energy-change (2. order) :-0.6995106E+00  (-0.2613554E-01)
 number of electron      53.9999988 magnetization       6.5336796
 augmentation part       -0.5349845 magnetization       4.6657290

 Broyden mixing:
  rms(total) = 0.62845E-01    rms(broyden)= 0.62845E-01
  rms(prec ) = 0.63207E-01
  weight for this iteration     100.00

 eigenvalues of (default mixing * dielectric matrix)
  average eigenvalue GAMMA=   1.3391
  2.7095  2.7095  1.3557  0.4190  0.8506  0.6647  0.6647

 Free energy of the ion-electron system (eV)
  ---------------------------------------------------
  alpha Z        PSCENC =        23.01523305
  Ewald energy   TEWEN  =      7673.06934580
  -Hartree energ DENC   =    -10339.54812129
  -exchange      EXHF   =         0.00000000
  -V(xc)+E(xc)   XCENC  =        86.58818368
  PAW double counting   =      3680.28992542    -3643.08876636
  entropy T*S    EENTRO =        -0.00000000
  eigenvalues    EBANDS =      -530.71792244
  atomic energy  EATOM  =      3012.10669636
  Solvation  Ediel_sol  =         0.00000000
  ---------------------------------------------------
  free energy    TOTEN  =       -38.28542577 eV

  energy without entropy =      -38.28542577  energy(sigma->0) =      -38.28542577


--------------------------------------------------------------------------------------------------------




--------------------------------------- Iteration      1(  13)  ---------------------------------------


    POTLOK:  cpu time      1.9127: real time      3.8118
    SETDIJ:  cpu time      0.1762: real time      0.3602
     EDDAV:  cpu time    285.2026: real time    570.4490
       DOS:  cpu time      0.2337: real time      0.4667
    CHARGE:  cpu time     10.9820: real time     21.9706
    MIXING:  cpu time      0.6099: real time      1.2132
    --------------------------------------------
      LOOP:  cpu time    299.1171: real time    598.2715

 eigenvalue-minimisations  : 18018
 total energy-change (2. order) :-0.2998201E+00  (-0.8782007E-02)
 number of electron      53.9999988 magnetization       6.1266947
 augmentation part       -0.5270800 magnetization       4.2670704

 Broyden mixing:
  rms(total) = 0.36501E-01    rms(broyden)= 0.36501E-01
  rms(prec ) = 0.36854E-01
  weight for this iteration     100.00

 eigenvalues of (default mixing * dielectric matrix)
  average eigenvalue GAMMA=   1.6841
  5.9789  2.5342  1.4677  1.0513  0.4190  0.7181  0.6517  0.6517

 Free energy of the ion-electron system (eV)
  ---------------------------------------------------
  alpha Z        PSCENC =        23.01523305
  Ewald energy   TEWEN  =      7673.06934580
  -Hartree energ DENC   =    -10339.17635969
  -exchange      EXHF   =         0.00000000
  -V(xc)+E(xc)   XCENC  =        86.35202734
  PAW double counting   =      3649.61157813    -3612.35906594
  entropy T*S    EENTRO =        -0.00000000
  eigenvalues    EBANDS =      -531.20470089
  atomic energy  EATOM  =      3012.10669636
  Solvation  Ediel_sol  =         0.00000000
  ---------------------------------------------------
  free energy    TOTEN  =       -38.58524583 eV

  energy without entropy =      -38.58524583  energy(sigma->0) =      -38.58524583


--------------------------------------------------------------------------------------------------------




--------------------------------------- Iteration      1(  14)  ---------------------------------------


    POTLOK:  cpu time      2.0003: real time      4.0065
    SETDIJ:  cpu time      0.2200: real time      0.4410
     EDDAV:  cpu time    269.9010: real time    539.8400
       DOS:  cpu time      0.1743: real time      0.3563
    CHARGE:  cpu time     10.6258: real time     21.2394
    MIXING:  cpu time      0.6157: real time      1.2377
    --------------------------------------------
      LOOP:  cpu time    283.5371: real time    567.1210

 eigenvalue-minimisations  : 16590
 total energy-change (2. order) :-0.1821982E+00  (-0.7410198E-02)
 number of electron      53.9999988 magnetization       6.0506710
 augmentation part       -0.5355460 magnetization       4.1868784

 Broyden mixing:
  rms(total) = 0.16501E-01    rms(broyden)= 0.16501E-01
  rms(prec ) = 0.17741E-01
  weight for this iteration     100.00

 eigenvalues of (default mixing * dielectric matrix)
  average eigenvalue GAMMA=   1.8210
  7.9111  2.4353  1.4193  1.4193  0.4191  0.8252  0.6627  0.6627  0.6342

 Free energy of the ion-electron system (eV)
  ---------------------------------------------------
  alpha Z        PSCENC =        23.01523305
  Ewald energy   TEWEN  =      7673.06934580
  -Hartree energ DENC   =    -10338.74108341
  -exchange      EXHF   =         0.00000000
  -V(xc)+E(xc)   XCENC  =        86.15675647
  PAW double counting   =      3641.25496639    -3604.04781501
  entropy T*S    EENTRO =        -0.00000000
  eigenvalues    EBANDS =      -531.58154370
  atomic energy  EATOM  =      3012.10669636
  Solvation  Ediel_sol  =         0.00000000
  ---------------------------------------------------
  free energy    TOTEN  =       -38.76744404 eV

  energy without entropy =      -38.76744404  energy(sigma->0) =      -38.76744404


--------------------------------------------------------------------------------------------------------




--------------------------------------- Iteration      1(  15)  ---------------------------------------


    POTLOK:  cpu time      1.9336: real time      3.8747
    SETDIJ:  cpu time      0.2458: real time      0.4928
     EDDAV:  cpu time    228.1810: real time    419.9613
       DOS:  cpu time      0.0011: real time      0.0011
    CHARGE:  cpu time      7.9584: real time      7.9608
    MIXING:  cpu time      0.0119: real time      0.0119
    --------------------------------------------
      LOOP:  cpu time    238.3319: real time    432.3026

 eigenvalue-minimisations  : 18186
 total energy-change (2. order) :-0.8051109E-01  (-0.6539933E-03)
 number of electron      53.9999988 magnetization       6.0336470
 augmentation part       -0.5318688 magnetization       4.1690626

 Broyden mixing:
  rms(total) = 0.84110E-02    rms(broyden)= 0.84109E-02
  rms(prec ) = 0.99784E-02
  weight for this iteration     100.00

 eigenvalues of (default mixing * dielectric matrix)
  average eigenvalue GAMMA=   1.7688
  8.3135  2.4502  1.5486  1.2350  0.9805  0.4191  0.8001  0.7029  0.6191  0.6191

 Free energy of the ion-electron system (eV)
  ---------------------------------------------------
  alpha Z        PSCENC =        23.01523305
  Ewald energy   TEWEN  =      7673.06934580
  -Hartree energ DENC   =    -10338.39222072
  -exchange      EXHF   =         0.00000000
  -V(xc)+E(xc)   XCENC  =        86.06943406
  PAW double counting   =      3644.59453699    -3607.39672511
  entropy T*S    EENTRO =        -0.00000000
  eigenvalues    EBANDS =      -531.91425557
  atomic energy  EATOM  =      3012.10669636
  Solvation  Ediel_sol  =         0.00000000
  ---------------------------------------------------
  free energy    TOTEN  =       -38.84795513 eV

  energy without entropy =      -38.84795513  energy(sigma->0) =      -38.84795513


--------------------------------------------------------------------------------------------------------




--------------------------------------- Iteration      1(  16)  ---------------------------------------


    POTLOK:  cpu time      0.3647: real time      0.3647
    SETDIJ:  cpu time      0.0131: real time      0.0131
     EDDAV:  cpu time    102.4906: real time    102.5318
       DOS:  cpu time      0.0011: real time      0.0011
    CHARGE:  cpu time      7.9496: real time      7.9526
    MIXING:  cpu time      0.0121: real time      0.0121
    --------------------------------------------
      LOOP:  cpu time    110.8312: real time    110.8754

 eigenvalue-minimisations  : 17850
 total energy-change (2. order) :-0.1793209E-01  (-0.1233681E-03)
 number of electron      53.9999988 magnetization       6.0139404
 augmentation part       -0.5262885 magnetization       4.1505578

 Broyden mixing:
  rms(total) = 0.50063E-02    rms(broyden)= 0.50062E-02
  rms(prec ) = 0.64373E-02
  weight for this iteration     100.00

 eigenvalues of (default mixing * dielectric matrix)
  average eigenvalue GAMMA=   1.8006
  8.5749  2.4275  1.7507  1.7507  1.3101  0.4191  0.8860  0.7326  0.7326  0.6221
  0.5999

 Free energy of the ion-electron system (eV)
  ---------------------------------------------------
  alpha Z        PSCENC =        23.01523305
  Ewald energy   TEWEN  =      7673.06934580
  -Hartree energ DENC   =    -10337.80892206
  -exchange      EXHF   =         0.00000000
  -V(xc)+E(xc)   XCENC  =        86.05215778
  PAW double counting   =      3645.93958003    -3608.72853970
  entropy T*S    EENTRO =        -0.00000000
  eigenvalues    EBANDS =      -532.51143849
  atomic energy  EATOM  =      3012.10669636
  Solvation  Ediel_sol  =         0.00000000
  ---------------------------------------------------
  free energy    TOTEN  =       -38.86588722 eV

  energy without entropy =      -38.86588722  energy(sigma->0) =      -38.86588722


--------------------------------------------------------------------------------------------------------




--------------------------------------- Iteration      1(  17)  ---------------------------------------


    POTLOK:  cpu time      0.3640: real time      0.3642
    SETDIJ:  cpu time      0.0131: real time      0.0131
     EDDAV:  cpu time     88.3786: real time     88.4148
       DOS:  cpu time      0.0012: real time      0.0012
    CHARGE:  cpu time      7.9382: real time      7.9409
    MIXING:  cpu time      0.0124: real time      0.0124
    --------------------------------------------
      LOOP:  cpu time     96.7075: real time     96.7466

 eigenvalue-minimisations  : 14784
 total energy-change (2. order) :-0.9011697E-02  (-0.1059860E-03)
 number of electron      53.9999988 magnetization       6.0080909
 augmentation part       -0.5255436 magnetization       4.1449886

 Broyden mixing:
  rms(total) = 0.28348E-02    rms(broyden)= 0.28348E-02
  rms(prec ) = 0.38682E-02
  weight for this iteration     100.00

 eigenvalues of (default mixing * dielectric matrix)
  average eigenvalue GAMMA=   1.8014
  8.6953  2.4826  2.4826  1.8601  1.2538  0.4191  0.8600  0.8600  0.7770  0.6717
  0.6439  0.6103

 Free energy of the ion-electron system (eV)
  ---------------------------------------------------
  alpha Z        PSCENC =        23.01523305
  Ewald energy   TEWEN  =      7673.06934580
  -Hartree energ DENC   =    -10336.80105780
  -exchange      EXHF   =         0.00000000
  -V(xc)+E(xc)   XCENC  =        86.03809470
  PAW double counting   =      3650.23511001    -3613.02127977
  entropy T*S    EENTRO =        -0.00000000
  eigenvalues    EBANDS =      -533.51704129
  atomic energy  EATOM  =      3012.10669636
  Solvation  Ediel_sol  =         0.00000000
  ---------------------------------------------------
  free energy    TOTEN  =       -38.87489892 eV

  energy without entropy =      -38.87489892  energy(sigma->0) =      -38.87489892


--------------------------------------------------------------------------------------------------------




--------------------------------------- Iteration      1(  18)  ---------------------------------------


    POTLOK:  cpu time      0.3629: real time      0.3629
    SETDIJ:  cpu time      0.0132: real time      0.0132
[...]
     18      -6.9137      1.00000
     19      -6.7259      1.00000
     20      -6.7044      1.00000
     21      -6.5235      1.00000
     22      -6.3135      1.00000
     23      -6.1172      1.00000
     24      -6.0841      1.00000
     25      -2.5774      0.00000
     26      -2.5435      0.00000
     27      -2.3722      0.00000
     28      -2.2236      0.00000
     29      -2.1233      0.00000
     30      -2.1090      0.00000
     31      -1.6766      0.00000
     32      -1.5865      0.00000
     33      -1.5601      0.00000
     34      -1.5194      0.00000
     35       2.0778      0.00000
     36       2.2881      0.00000
     37       2.9810      0.00000
     38       3.0610      0.00000
     39       3.1443      0.00000
     40       3.3810      0.00000
     41       3.4267      0.00000
     42       3.5627      0.00000

 k-point    70 :      -0.4167   -0.0833    0.3750
  band No.  band energies     occupation 
      1     -19.6212      1.00000
      2     -19.3821      1.00000
      3     -19.1143      1.00000
      4     -19.0160      1.00000
      5     -18.9760      1.00000
      6     -18.9432      1.00000
      7      -9.3301      1.00000
      8      -8.8487      1.00000
      9      -8.6658      1.00000
     10      -8.5191      1.00000
     11      -8.3590      1.00000
     12      -8.2454      1.00000
     13      -8.1542      1.00000
     14      -7.8453      1.00000
     15      -7.6384      1.00000
     16      -7.4745      1.00000
     17      -7.1670      1.00000
     18      -6.9052      1.00000
     19      -6.8462      1.00000
     20      -6.6334      1.00000
     21      -6.4678      1.00000
     22      -6.3354      1.00000
     23      -6.1246      1.00000
     24      -6.0494      1.00000
     25      -2.5897      0.00000
     26      -2.5777      0.00000
     27      -2.3878      0.00000
     28      -2.2119      0.00000
     29      -2.1079      0.00000
     30      -2.0959      0.00000
     31      -1.6969      0.00000
     32      -1.5765      0.00000
     33      -1.5542      0.00000
     34      -1.5202      0.00000
     35       2.4463      0.00000
     36       2.5767      0.00000
     37       2.8105      0.00000
     38       2.8967      0.00000
     39       3.0316      0.00000
     40       3.3246      0.00000
     41       3.4106      0.00000
     42       3.7513      0.00000

 k-point    71 :      -0.2500   -0.0833    0.3750
  band No.  band energies     occupation 
      1     -19.7668      1.00000
      2     -19.2286      1.00000
      3     -19.1004      1.00000
      4     -19.0678      1.00000
      5     -18.9363      1.00000
      6     -18.9318      1.00000
      7      -9.3769      1.00000
      8      -8.8935      1.00000
      9      -8.6180      1.00000
     10      -8.5715      1.00000
     11      -8.3996      1.00000
     12      -8.2397      1.00000
     13      -8.1628      1.00000
     14      -7.9661      1.00000
     15      -7.7728      1.00000
     16      -7.3002      1.00000
     17      -6.9512      1.00000
     18      -6.8941      1.00000
     19      -6.8348      1.00000
     20      -6.6114      1.00000
     21      -6.5270      1.00000
     22      -6.2936      1.00000
     23      -6.1387      1.00000
     24      -6.1103      1.00000
     25      -2.5588      0.00000
     26      -2.4893      0.00000
     27      -2.3505      0.00000
     28      -2.2423      0.00000
     29      -2.1512      0.00000
     30      -2.1338      0.00000
     31      -1.6379      0.00000
     32      -1.5995      0.00000
     33      -1.5784      0.00000
     34      -1.5039      0.00000
     35       1.7444      0.00000
     36       2.0407      0.00000
     37       2.6967      0.00000
     38       3.0787      0.00000
     39       3.2771      0.00000
     40       3.4546      0.00000
     41       3.7097      0.00000
     42       3.7973      0.00000

 k-point    72 :      -0.0833   -0.0833    0.3750
  band No.  band energies     occupation 
      1     -19.8818      1.00000
      2     -19.1150      1.00000
      3     -19.1034      1.00000
      4     -19.0704      1.00000
      5     -18.9166      1.00000
      6     -18.9157      1.00000
      7      -9.4337      1.00000
      8      -8.9112      1.00000
      9      -8.5700      1.00000
     10      -8.5041      1.00000
     11      -8.4529      1.00000
     12      -8.4270      1.00000
     13      -8.1226      1.00000
     14      -7.9748      1.00000
     15      -7.9110      1.00000
     16      -7.2286      1.00000
     17      -7.1245      1.00000
     18      -7.0914      1.00000
     19      -6.6506      1.00000
     20      -6.4773      1.00000
     21      -6.2699      1.00000
     22      -6.2543      1.00000
     23      -6.1567      1.00000
     24      -6.1086      1.00000
     25      -2.5167      0.00000
     26      -2.4167      0.00000
     27      -2.3228      0.00000
     28      -2.3223      0.00000
     29      -2.1934      0.00000
     30      -2.1665      0.00000
     31      -1.6180      0.00000
     32      -1.6127      0.00000
     33      -1.5174      0.00000
     34      -1.4646      0.00000
     35       1.2528      0.00000
     36       1.7018      0.00000
     37       2.3231      0.00000
     38       2.6412      0.00000
     39       3.1238      0.00000
     40       3.5251      0.00000
     41       3.5977      0.00000
     42       3.9651      0.00000


--------------------------------------------------------------------------------------------------------


 soft charge-density along one line, spin component           1
         0         1         2         3         4         5         6         7         8         9
 total charge-density along one line
 
 soft charge-density along one line, spin component           2
         0         1         2         3         4         5         6         7         8         9
 total charge-density along one line
 
 pseudopotential strength for first ion, spin component:           1
 -9.973  -0.115   0.000   0.000   0.000 -10.291  -0.112   0.000
 -0.115  -9.894  -0.000   0.000  -0.000  -0.112 -10.214  -0.000
  0.000  -0.000 -10.057  -0.000  -0.000   0.000  -0.000 -10.373
  0.000   0.000  -0.000  -9.894   0.115   0.000   0.000  -0.000
  0.000  -0.000  -0.000   0.115  -9.973   0.000  -0.000  -0.000
-10.291  -0.112   0.000   0.000   0.000 -10.572  -0.109   0.000
 -0.112 -10.214  -0.000   0.000  -0.000  -0.109 -10.498  -0.000
  0.000  -0.000 -10.373  -0.000  -0.000   0.000  -0.000 -10.652
  0.000   0.000  -0.000 -10.214   0.112   0.000   0.000  -0.000
  0.000  -0.000  -0.000   0.112 -10.291   0.000  -0.000  -0.000
  0.000   0.000   0.000   0.000  -0.000   0.000   0.000   0.000
  0.000   0.000   0.000   0.000   0.000   0.000   0.000   0.000
 -0.000  -0.000   0.000   0.000  -0.002  -0.000  -0.000   0.000
  0.000   0.000   0.000  -0.000   0.000   0.000   0.000   0.000
 -0.002   0.000  -0.000   0.000  -0.000  -0.002   0.000  -0.000
 -0.000  -0.000   0.000   0.000  -0.002  -0.000  -0.000   0.000
  0.000   0.000   0.000  -0.000   0.000   0.000   0.000   0.000
 -0.002   0.000  -0.000   0.000  -0.000  -0.002   0.000  -0.000
 pseudopotential strength for first ion, spin component:           2
 -8.287   0.244  -0.000  -0.000  -0.000  -8.661   0.238  -0.000
  0.244  -8.450   0.000  -0.000   0.000   0.238  -8.820   0.000
 -0.000   0.000  -8.109   0.000   0.000  -0.000   0.000  -8.487
 -0.000  -0.000   0.000  -8.450  -0.244  -0.000  -0.000   0.000
 -0.000   0.000   0.000  -0.244  -8.287  -0.000   0.000   0.000
 -8.661   0.238  -0.000  -0.000  -0.000  -8.996   0.232  -0.000
  0.238  -8.820   0.000  -0.000   0.000   0.232  -9.151   0.000
 -0.000   0.000  -8.487   0.000   0.000  -0.000   0.000  -8.827
 -0.000  -0.000   0.000  -8.819  -0.238  -0.000  -0.000   0.000
 -0.000   0.000   0.000  -0.238  -8.661  -0.000   0.000   0.000
  0.000   0.000  -0.002  -0.000  -0.000   0.000   0.000  -0.002
  0.000   0.000  -0.003  -0.000  -0.000   0.000   0.000  -0.003
 -0.000   0.000  -0.000  -0.000   0.001  -0.000   0.000  -0.000
 -0.000  -0.000   0.000   0.000  -0.000  -0.000  -0.000   0.000
  0.001  -0.000   0.000  -0.000  -0.000   0.001  -0.000   0.000
 -0.000   0.000  -0.000  -0.000   0.002  -0.000   0.000  -0.000
 -0.000  -0.000   0.000   0.000  -0.000  -0.000  -0.000   0.000
  0.002  -0.000   0.000  -0.000  -0.000   0.002  -0.000   0.000
 total augmentation occupancy for first ion, spin component:           1
  3.679   1.318  -0.001  -0.001  -0.000  -2.697  -0.166  -0.000   0.001  -0.000  -0.000   0.000   0.000  -0.001   0.108  -0.000
  1.318   2.712   0.002  -0.001   0.001  -0.167  -2.479  -0.001  -0.000  -0.001   0.000  -0.000   0.000  -0.001   0.039  -0.000
 -0.001   0.002   4.432   0.001   0.000   0.000  -0.001  -2.614  -0.000   0.000   0.115  -0.011  -0.001   0.000   0.001   0.000
 -0.001  -0.001   0.001   2.713  -1.319   0.001  -0.000  -0.000  -2.479   0.168   0.000  -0.000  -0.039   0.002  -0.000  -0.000
 -0.000   0.001   0.000  -1.319   3.679  -0.000  -0.001   0.000   0.167  -2.697   0.000  -0.000   0.108  -0.001  -0.000  -0.004
 -2.697  -0.167   0.000   0.001  -0.000   2.662  -0.729   0.001  -0.001   0.001   0.001  -0.000  -0.000   0.001  -0.118  -0.000
 -0.166  -2.479  -0.001  -0.000  -0.001  -0.729   3.025  -0.000   0.001   0.001  -0.001   0.000  -0.000   0.001  -0.032   0.000
 -0.000  -0.001  -2.614  -0.000   0.000   0.001  -0.000   1.920  -0.000  -0.000  -0.124   0.016   0.001  -0.000  -0.001  -0.000
  0.001  -0.000  -0.000  -2.479   0.167  -0.001   0.001  -0.000   3.023   0.728  -0.000   0.000   0.033  -0.002   0.000  -0.000
 -0.000  -0.001   0.000   0.168  -2.697   0.001   0.001  -0.000   0.728   2.664  -0.000   0.000  -0.118   0.001   0.000   0.005
 -0.000   0.000   0.115   0.000   0.000   0.001  -0.001  -0.124  -0.000  -0.000   1.783  -0.211   0.000   0.000  -0.000  -0.000
  0.000  -0.000  -0.011  -0.000  -0.000  -0.000   0.000   0.016   0.000   0.000  -0.211   0.033  -0.000  -0.000   0.000   0.000
  0.000   0.000  -0.001  -0.039   0.108  -0.000  -0.000   0.001   0.033  -0.118   0.000  -0.000   0.275  -0.000   0.000  -0.008
 -0.001  -0.001   0.000   0.002  -0.001   0.001   0.001  -0.000  -0.002   0.001   0.000  -0.000  -0.000   0.261  -0.000   0.000
  0.108   0.039   0.001  -0.000  -0.000  -0.118  -0.032  -0.001   0.000   0.000  -0.000   0.000   0.000  -0.000   0.275  -0.000
 -0.000  -0.000   0.000  -0.000  -0.004  -0.000   0.000  -0.000  -0.000   0.005  -0.000   0.000  -0.008   0.000  -0.000   0.000
  0.000   0.000   0.000  -0.000   0.000  -0.000  -0.000  -0.000   0.000  -0.000  -0.000   0.000   0.000  -0.007   0.000  -0.000
 -0.004   0.000  -0.000   0.000  -0.000   0.005   0.000   0.000  -0.000  -0.000   0.000  -0.000  -0.000   0.000  -0.008   0.000
 total augmentation occupancy for first ion, spin component:           2
  2.485   2.153  -0.001  -0.001  -0.001  -1.059  -1.292   0.001   0.000   0.001   0.000   0.000   0.000  -0.000   0.018  -0.000
  2.153   1.060   0.002  -0.002   0.001  -1.293  -0.209  -0.001   0.001  -0.000  -0.000   0.000   0.000  -0.000   0.032  -0.000
 -0.001   0.002   3.932   0.001   0.001   0.001  -0.001  -1.913  -0.001  -0.001   0.009   0.006  -0.000   0.000   0.001  -0.000
 -0.001  -0.002   0.001   1.062  -2.154   0.000   0.001  -0.001  -0.211   1.294  -0.000   0.000  -0.032   0.000  -0.000  -0.000
 -0.001   0.001   0.001  -2.154   2.484   0.001  -0.000  -0.001   1.292  -1.059  -0.000  -0.000   0.018  -0.000   0.000   0.001
 -1.059  -1.293   0.001   0.000   0.001   0.371   0.840  -0.000  -0.000  -0.000  -0.000  -0.000  -0.000   0.000  -0.007   0.000
 -1.292  -0.209  -0.001   0.001  -0.000   0.840  -0.176   0.001  -0.001   0.000   0.000  -0.000   0.000   0.000  -0.016  -0.000
  0.001  -0.001  -1.913  -0.001  -0.001  -0.000   0.001   0.929   0.001   0.000   0.003  -0.005   0.000  -0.000  -0.000   0.000
  0.000   0.001  -0.001  -0.211   1.292  -0.000  -0.001   0.001  -0.175  -0.841   0.000  -0.000   0.016  -0.000  -0.000  -0.000
  0.001  -0.000  -0.001   1.294  -1.059  -0.000   0.000   0.000  -0.841   0.371   0.000   0.000  -0.007   0.000  -0.000  -0.001
  0.000  -0.000   0.009  -0.000  -0.000  -0.000   0.000   0.003   0.000   0.000  -0.034   0.048  -0.000  -0.000   0.000   0.000
  0.000   0.000   0.006   0.000  -0.000  -0.000  -0.000  -0.005  -0.000   0.000   0.048  -0.009   0.000   0.000  -0.000  -0.000
  0.000   0.000  -0.000  -0.032   0.018  -0.000   0.000   0.000   0.016  -0.007  -0.000   0.000   0.017  -0.000  -0.000   0.001
 -0.000  -0.000   0.000   0.000  -0.000   0.000   0.000  -0.000  -0.000   0.000  -0.000   0.000  -0.000   0.014  -0.000  -0.000
  0.018   0.032   0.001  -0.000   0.000  -0.007  -0.016  -0.000  -0.000  -0.000   0.000  -0.000  -0.000  -0.000   0.017   0.000
 -0.000  -0.000  -0.000  -0.000   0.001   0.000  -0.000   0.000  -0.000  -0.001   0.000  -0.000   0.001  -0.000   0.000  -0.000
 -0.000  -0.000   0.000   0.000  -0.000   0.000   0.000  -0.000  -0.000   0.000   0.000  -0.000  -0.000   0.001  -0.000  -0.000
  0.001   0.000   0.000   0.000  -0.000  -0.001   0.000  -0.000   0.000   0.000  -0.000   0.000   0.000  -0.000   0.001   0.000


------------------------ aborting loop because EDIFF is reached ----------------------------------------


    CHARGE:  cpu time      7.9272: real time      7.9301
    FORLOC:  cpu time      0.0059: real time      0.0060
    FORNL :  cpu time      3.3351: real time      3.3357
    STRESS:  cpu time     65.6380: real time     65.6647
    FORCOR:  cpu time      0.3120: real time      0.3120
    FORHAR:  cpu time      0.0394: real time      0.0394
    MIXING:  cpu time      0.0145: real time      0.0145
    OFIELD:  cpu time      0.0001: real time      0.0001

  FORCE on cell =-STRESS in cart. coord.  units (eV):
  Direction    XX          YY          ZZ          XY          YZ          ZX
  --------------------------------------------------------------------------------------
  Alpha Z    23.01523    23.01523    23.01523
  Ewald    9327.73960  9328.27386-10982.94561     0.44962     3.92379     2.13125
  Hartree  9931.59302  9931.96512 -9529.35256     0.30305     3.72171     2.02001
  E(xc)    -209.14584  -209.14561  -209.40812     0.00015     0.00073     0.00044
  Local  -20281.41800-20282.32192 19485.78029    -0.74729    -7.63513    -4.14585
  n-local   476.73597   476.73791   475.49712     0.00236    -0.00561    -0.00336
  augment   -58.72974   -58.73104   -58.88522    -0.00114     0.00113     0.00063
  Kinetic   788.40951   788.42669   795.97338     0.00872    -0.01239    -0.00577
  Fock        0.00000     0.00000     0.00000     0.00000     0.00000     0.00000
  -------------------------------------------------------------------------------------
  Total      -1.80025    -1.77976    -0.32550     0.01547    -0.00578    -0.00266
  in kB      -3.85614    -3.81225    -0.69721     0.03314    -0.01239    -0.00569
  external pressure =       -2.79 kB  Pullay stress =        0.00 kB


 VOLUME and BASIS-vectors are now :
 -----------------------------------------------------------------------------
  energy-cutoff  :      500.00
  volume of cell :      747.98
      direct lattice vectors                 reciprocal lattice vectors
     6.154088000 -0.002745000  0.000611000     0.162535521  0.093943719 -0.000034071
    -3.079421000  5.327821000  0.000675000     0.000083745  0.187742402 -0.000035214
     0.002310000  0.004279000 22.818631000    -0.000004355 -0.000008069  0.043823840

  length of vectors
     6.154088643  6.153739575 22.818631518     0.187731774  0.187742424  0.043823841


 FORCES acting on ions
    electron-ion (+dipol)            ewald-force                    non-local-force                 convergence-correction
 -----------------------------------------------------------------------------------------------
   -.188E+00 0.119E+00 0.956E-03   0.191E+00 -.121E+00 -.113E-02   0.188E-03 0.401E-04 -.319E-03   0.290E-07 -.166E-07 -.596E-07
   0.184E+00 -.117E+00 -.625E-02   -.186E+00 0.118E+00 0.588E-02   0.741E-05 -.151E-03 0.637E-04   -.708E-08 0.803E-08 -.582E-07
   -.363E+02 0.629E+02 -.482E+03   0.373E+02 -.646E+02 0.485E+03   -.101E+01 0.176E+01 -.302E+01   -.245E-05 0.224E-04 -.893E-06
   -.363E+02 -.628E+02 -.481E+03   0.373E+02 0.646E+02 0.484E+03   -.103E+01 -.178E+01 -.301E+01   -.183E-04 -.137E-04 -.798E-06
   0.726E+02 -.340E-01 -.482E+03   -.746E+02 0.306E-01 0.485E+03   0.203E+01 0.508E-02 -.302E+01   0.206E-04 -.890E-05 -.889E-06
   0.363E+02 0.628E+02 0.481E+03   -.373E+02 -.646E+02 -.484E+03   0.103E+01 0.178E+01 0.301E+01   0.278E-05 0.227E-04 0.748E-06
   0.363E+02 -.629E+02 0.482E+03   -.373E+02 0.646E+02 -.485E+03   0.101E+01 -.176E+01 0.302E+01   0.180E-04 -.134E-04 0.825E-06
   -.726E+02 0.302E-01 0.482E+03   0.746E+02 -.268E-01 -.485E+03   -.203E+01 -.496E-02 0.302E+01   -.206E-04 -.907E-05 0.826E-06
 -----------------------------------------------------------------------------------------------
   -.184E-03 0.110E-03 -.445E-03   -.142E-13 0.731E-14 0.227E-12   0.184E-03 -.110E-03 0.444E-03   0.657E-07 -.159E-07 -.299E-06
 
 
 POSITION                                       TOTAL-FORCE (eV/Angst)
 -----------------------------------------------------------------------------------
      3.07754      1.77613     11.40996         0.002664     -0.001300     -0.000490
      6.15511     -0.00049     11.40994        -0.002581      0.001257     -0.000313
      1.96177      0.15636     12.73298        -0.017514      0.033290     -0.030180
      5.04091      1.62328     12.73015        -0.021282     -0.037084     -0.025916
      2.23078      3.55119     12.73376         0.037760      0.001658     -0.030609
      4.19176      0.15234     10.08970         0.021218      0.037251      0.026178
      1.11679      1.62205     10.08626         0.017521     -0.033534      0.030489
      3.92244      3.55225     10.08677        -0.037787     -0.001539      0.030841
 -----------------------------------------------------------------------------------
    total drift:                                0.000000     -0.000000     -0.000001


--------------------------------------------------------------------------------------------------------



  FREE ENERGIE OF THE ION-ELECTRON SYSTEM (eV)
  ---------------------------------------------------
  free  energy   TOTEN  =       -38.87790344 eV

  energy  without entropy=      -38.87790344  energy(sigma->0) =      -38.87790344
 


--------------------------------------------------------------------------------------------------------


    POTLOK:  cpu time      0.3777: real time      0.3777


--------------------------------------------------------------------------------------------------------


     LOOP+:  cpu time   6097.0415: real time  10499.3121
    4ORBIT:  cpu time      0.0000: real time      0.0000

 total amount of memory used by VASP MPI-rank0   514721. kBytes
=======================================================================

   base                                    :      30000. kBytes
   nonl-proj                               :     396958. kBytes
   fftplans                                :       4669. kBytes
   grid                                    :      38817. kBytes
   one-center                              :        248. kBytes
   wavefun                                 :      44029. kBytes
 
  
  
 General timing and accounting informations for this job:
 ========================================================
  
                  Total CPU time used (sec):     6286.312
                            User time (sec):     5538.267
                          System time (sec):      748.045
                         Elapsed time (sec):    11002.179
  
                   Maximum memory used (kb):      629236.
                   Average memory used (kb):          N/A
  
                          Minor page faults:       125791
                          Major page faults:         8505
                 Voluntary context switches:           24
