 running   42 mpi-ranks, on    1 nodes
 distrk:  each k-point on   42 cores,    1 groups
 distr:  one band on    1 cores,   42 groups
 vasp.6.5.1 10Mar25 (build Apr 08 2025 20:07:02) complex                        
  
 POSCAR found type information on POSCAR CrCl
 POSCAR found :  2 types and       8 ions
 scaLAPACK will be used
 -----------------------------------------------------------------------------
|                                                                             |
|           W    W    AA    RRRRR   N    N  II  N    N   GGGG   !!!           |
|           W    W   A  A   R    R  NN   N  II  NN   N  G    G  !!!           |
|           W    W  A    A  R    R  N N  N  II  N N  N  G       !!!           |
|           W WW W  AAAAAA  RRRRR   N  N N  II  N  N N  G  GGG   !            |
|           WW  WW  A    A  R   R   N   NN  II  N   NN  G    G                |
|           W    W  A    A  R    R  N    N  II  N    N   GGGG   !!!           |
|                                                                             |
|     For optimal performance we recommend to set                             |
|       NCORE = 2 up to number-of-cores-per-socket                            |
|     NCORE specifies how many cores store one orbital (NPAR=cpu/NCORE).      |
|     This setting can greatly improve the performance of VASP for DFT.       |
|     The default, NCORE=1 might be grossly inefficient on modern             |
|     multi-core architectures or massively parallel machines. Do your        |
|     own testing! More info at https://www.vasp.at/wiki/index.php/NCORE      |
|     Unfortunately you need to use the default for GW and RPA                |
|     calculations (for HF NCORE is supported but not extensively tested      |
|     yet).                                                                   |
|                                                                             |
 -----------------------------------------------------------------------------

 -----------------------------------------------------------------------------
|                                                                             |
|           W    W    AA    RRRRR   N    N  II  N    N   GGGG   !!!           |
|           W    W   A  A   R    R  NN   N  II  NN   N  G    G  !!!           |
|           W    W  A    A  R    R  N N  N  II  N N  N  G       !!!           |
|           W WW W  AAAAAA  RRRRR   N  N N  II  N  N N  G  GGG   !            |
|           WW  WW  A    A  R   R   N   NN  II  N   NN  G    G                |
|           W    W  A    A  R    R  N    N  II  N    N   GGGG   !!!           |
|                                                                             |
|     Inconsistent Bravais lattice types found for crystalline and            |
|     reciprocal lattice:                                                     |
|                                                                             |
|        Crystalline: base-centered monoclinic                                |
|        Reciprocal : triclinic                                               |
|                    (instead of base-centered monoclinic)                    |
|                                                                             |
|     In most cases this is due to inaccuracies in the specification of       |
|     the crytalline lattice vectors.                                         |
|                                                                             |
|     Suggested SOLUTIONS:                                                    |
|      ) Refine the lattice parameters of your structure,                     |
|      ) and/or try changing SYMPREC.                                         |
|                                                                             |
 -----------------------------------------------------------------------------

 LDA part: xc-table for (Slater+PW92), standard interpolation
 POSCAR, INCAR and KPOINTS ok, starting setup
 FFT: planning ... GRIDC
 FFT: planning ... GRID_SOFT
 FFT: planning ... GRID
 WAVECAR not read
 entering main loop
       N       E                     dE             d eps       ncg     rms          rms(c)
DAV:   1     0.433399778829E+03    0.43340E+03   -0.18149E+04 12096   0.897E+02
DAV:   2     0.558871114313E+01   -0.42781E+03   -0.42635E+03 19698   0.157E+02
DAV:   3    -0.416911913295E+02   -0.47280E+02   -0.46682E+02 12726   0.720E+01
DAV:   4    -0.427859647723E+02   -0.10948E+01   -0.10948E+01 23478   0.177E+01
DAV:   5    -0.427881401928E+02   -0.21754E-02   -0.21754E-02 19824   0.537E-01    0.200E+01
DAV:   6    -0.365189858873E+02    0.62692E+01   -0.10696E+02 21000   0.551E+01    0.204E+01
DAV:   7    -0.344672933493E+02    0.20517E+01   -0.36290E+01 17220   0.498E+01    0.943E+00
DAV:   8    -0.348203310938E+02   -0.35304E+00   -0.80913E-01 19362   0.425E+00    0.417E+00
DAV:   9    -0.361170299868E+02   -0.12967E+01   -0.12671E+00 20076   0.734E+00    0.168E+00
DAV:  10    -0.368219718797E+02   -0.70494E+00   -0.23861E-01 20034   0.258E+00    0.116E+00
DAV:  11    -0.375859152169E+02   -0.76394E+00   -0.26821E-01 19278   0.205E+00    0.900E-01
DAV:  12    -0.382854257738E+02   -0.69951E+00   -0.26136E-01 13944   0.169E+00    0.628E-01
DAV:  13    -0.385852458251E+02   -0.29982E+00   -0.87820E-02 18018   0.963E-01    0.365E-01
DAV:  14    -0.387674440417E+02   -0.18220E+00   -0.74102E-02 16590   0.772E-01    0.165E-01
DAV:  15    -0.388479551302E+02   -0.80511E-01   -0.65399E-03 18186   0.216E-01    0.841E-02
DAV:  16    -0.388658872234E+02   -0.17932E-01   -0.12337E-03 17850   0.173E-01    0.501E-02
DAV:  17    -0.388748989205E+02   -0.90117E-02   -0.10599E-03 14784   0.969E-02    0.283E-02
DAV:  18    -0.388759914765E+02   -0.10926E-02   -0.21256E-04 17136   0.676E-02    0.172E-02
DAV:  19    -0.388766628512E+02   -0.67137E-03   -0.65360E-05 14280   0.391E-02    0.121E-02
DAV:  20    -0.388772445597E+02   -0.58171E-03   -0.64038E-05 15372   0.297E-02    0.925E-03
DAV:  21    -0.388776327150E+02   -0.38816E-03   -0.44319E-05 15162   0.243E-02    0.782E-03
DAV:  22    -0.388777439874E+02   -0.11127E-03   -0.11979E-05 20034   0.111E-02    0.416E-03
DAV:  23    -0.388778230893E+02   -0.79102E-04   -0.97036E-06 16296   0.120E-02    0.237E-03
DAV:  24    -0.388778425279E+02   -0.19439E-04   -0.47451E-07 20622   0.359E-03    0.164E-03
DAV:  25    -0.388778826641E+02   -0.40136E-04   -0.22567E-06 15120   0.528E-03    0.962E-04
DAV:  26    -0.388778940455E+02   -0.11381E-04   -0.62467E-07 16800   0.293E-03    0.448E-04
DAV:  27    -0.388778973777E+02   -0.33322E-05   -0.35897E-08 18816   0.101E-03    0.328E-04
DAV:  28    -0.388779020560E+02   -0.46783E-05   -0.10189E-07 13608   0.104E-03    0.139E-04
DAV:  29    -0.388779031658E+02   -0.11098E-05   -0.22501E-08 15750   0.704E-04    0.732E-05
DAV:  30    -0.388779034448E+02   -0.27906E-06   -0.20639E-09 18102   0.264E-04
   1 F= -.38877903E+02 E0= -.38877903E+02  d E =-.159460E-11  mag=     6.0000
