<?xml version="1.0" encoding="ISO-8859-1"?>
<modeling>
 <generator>
  <i name="program" type="string">vasp </i>
  <i name="version" type="string">6.5.1  </i>
  <i name="subversion" type="string">10Mar25 (build Apr 08 2025 20:07:02) complex                          parallel </i>
  <i name="platform" type="string">LinuxIFC </i>
  <i name="date" type="string">2025 06 11 </i>
  <i name="time" type="string">14:32:39 </i>
 </generator>
 <incar>
  <i type="string" name="PREC">Accurate</i>
  <i type="int" name="ISPIN">     2</i>
  <i type="int" name="IBRION">    -1</i>
  <i name="EDIFF">      0.00000100</i>
  <i type="int" name="NSW">     0</i>
  <i type="int" name="ISYM">     0</i>
  <i name="ENCUT">    500.00000000</i>
  <v name="MAGMOM">      3.00000000      3.00000000      0.60000000      0.60000000      0.60000000      0.60000000      0.60000000      0.60000000</v>
  <i type="logical" name="LREAL"> F  </i>
  <i type="int" name="ISMEAR">     0</i>
  <i name="SIGMA">      0.05000000</i>
  <i type="logical" name="LWAVE"> F  </i>
  <i type="logical" name="LCHARG"> F  </i>
 </incar>
 <primitive_cell>
  <structure name="primitive_cell" >
   <crystal>
    <varray name="basis" >
     <v>       6.15408800      -0.00274500       0.00061100 </v>
     <v>      -3.07942100       5.32782100       0.00067500 </v>
     <v>       0.00231000       0.00427900      22.81863100 </v>
    </varray>
    <i name="volume">    747.98159913 </i>
    <varray name="rec_basis" >
     <v>       0.16253552       0.09394372      -0.00003407 </v>
     <v>       0.00008375       0.18774240      -0.00003521 </v>
     <v>      -0.00000435      -0.00000807       0.04382384 </v>
    </varray>
   </crystal>
   <varray name="positions" >
    <v>       0.66667703       0.33331061       0.50000070 </v>
    <v>       0.99998926       0.00002187       0.50000053 </v>
    <v>       0.33311315       0.02907181       0.55799819 </v>
    <v>       0.97139074       0.30473277       0.55784902 </v>
    <v>       0.69575945       0.66644706       0.55800373 </v>
    <v>       0.69527690       0.02859586       0.44215010 </v>
    <v>       0.33355667       0.30426630       0.44200082 </v>
    <v>       0.97090416       0.66688184       0.44199540 </v>
   </varray>
  </structure>
  <varray name="primitive_index" >
   <v type="int" >        1 </v>
   <v type="int" >        2 </v>
   <v type="int" >        3 </v>
   <v type="int" >        4 </v>
   <v type="int" >        5 </v>
   <v type="int" >        6 </v>
   <v type="int" >        7 </v>
   <v type="int" >        8 </v>
  </varray>
 </primitive_cell>
 <kpoints>
  <generation param="Monkhorst-Pack">
   <v type="int" name="divisions">       6        6        4 </v>
   <v name="usershift">      0.00000000       0.00000000       0.00000000 </v>
   <v name="genvec1">      0.16666667      -0.00000000       0.00000000 </v>
   <v name="genvec2">      0.00000000       0.16666667       0.00000000 </v>
   <v name="genvec3">      0.00000000      -0.00000000       0.25000000 </v>
   <v name="shift">      0.50000000       0.50000000       0.50000000 </v>
  </generation>
  <varray name="kpointlist" >
   <v>       0.08333333       0.08333333       0.12500000 </v>
   <v>       0.25000000       0.08333333       0.12500000 </v>
   <v>       0.41666667       0.08333333       0.12500000 </v>
   <v>      -0.41666667       0.08333333       0.12500000 </v>
   <v>      -0.25000000       0.08333333       0.12500000 </v>
   <v>      -0.08333333       0.08333333       0.12500000 </v>
   <v>       0.08333333       0.25000000       0.12500000 </v>
   <v>       0.25000000       0.25000000       0.12500000 </v>
   <v>       0.41666667       0.25000000       0.12500000 </v>
   <v>      -0.41666667       0.25000000       0.12500000 </v>
   <v>      -0.25000000       0.25000000       0.12500000 </v>
   <v>      -0.08333333       0.25000000       0.12500000 </v>
   <v>       0.08333333       0.41666667       0.12500000 </v>
   <v>       0.25000000       0.41666667       0.12500000 </v>
   <v>       0.41666667       0.41666667       0.12500000 </v>
   <v>      -0.41666667       0.41666667       0.12500000 </v>
   <v>      -0.25000000       0.41666667       0.12500000 </v>
   <v>      -0.08333333       0.41666667       0.12500000 </v>
   <v>       0.08333333      -0.41666667       0.12500000 </v>
   <v>       0.25000000      -0.41666667       0.12500000 </v>
   <v>       0.41666667      -0.41666667       0.12500000 </v>
   <v>      -0.41666667      -0.41666667       0.12500000 </v>
   <v>      -0.25000000      -0.41666667       0.12500000 </v>
   <v>      -0.08333333      -0.41666667       0.12500000 </v>
   <v>       0.08333333      -0.25000000       0.12500000 </v>
   <v>       0.25000000      -0.25000000       0.12500000 </v>
   <v>       0.41666667      -0.25000000       0.12500000 </v>
   <v>      -0.41666667      -0.25000000       0.12500000 </v>
   <v>      -0.25000000      -0.25000000       0.12500000 </v>
   <v>      -0.08333333      -0.25000000       0.12500000 </v>
   <v>       0.08333333      -0.08333333       0.12500000 </v>
   <v>       0.25000000      -0.08333333       0.12500000 </v>
   <v>       0.41666667      -0.08333333       0.12500000 </v>
   <v>      -0.41666667      -0.08333333       0.12500000 </v>
   <v>      -0.25000000      -0.08333333       0.12500000 </v>
   <v>      -0.08333333      -0.08333333       0.12500000 </v>
   <v>       0.08333333       0.08333333       0.37500000 </v>
   <v>       0.25000000       0.08333333       0.37500000 </v>
   <v>       0.41666667       0.08333333       0.37500000 </v>
   <v>      -0.41666667       0.08333333       0.37500000 </v>
   <v>      -0.25000000       0.08333333       0.37500000 </v>
   <v>      -0.08333333       0.08333333       0.37500000 </v>
   <v>       0.08333333       0.25000000       0.37500000 </v>
   <v>       0.25000000       0.25000000       0.37500000 </v>
   <v>       0.41666667       0.25000000       0.37500000 </v>
   <v>      -0.41666667       0.25000000       0.37500000 </v>
   <v>      -0.25000000       0.25000000       0.37500000 </v>
   <v>      -0.08333333       0.25000000       0.37500000 </v>
   <v>       0.08333333       0.41666667       0.37500000 </v>
   <v>       0.25000000       0.41666667       0.37500000 </v>
   <v>       0.41666667       0.41666667       0.37500000 </v>
   <v>      -0.41666667       0.41666667       0.37500000 </v>
   <v>      -0.25000000       0.41666667       0.37500000 </v>
   <v>      -0.08333333       0.41666667       0.37500000 </v>
   <v>       0.08333333      -0.41666667       0.37500000 </v>
   <v>       0.25000000      -0.41666667       0.37500000 </v>
   <v>       0.41666667      -0.41666667       0.37500000 </v>
   <v>      -0.41666667      -0.41666667       0.37500000 </v>
   <v>      -0.25000000      -0.41666667       0.37500000 </v>
   <v>      -0.08333333      -0.41666667       0.37500000 </v>
   <v>       0.08333333      -0.25000000       0.37500000 </v>
   <v>       0.25000000      -0.25000000       0.37500000 </v>
   <v>       0.41666667      -0.25000000       0.37500000 </v>
   <v>      -0.41666667      -0.25000000       0.37500000 </v>
   <v>      -0.25000000      -0.25000000       0.37500000 </v>
   <v>      -0.08333333      -0.25000000       0.37500000 </v>
   <v>       0.08333333      -0.08333333       0.37500000 </v>
   <v>       0.25000000      -0.08333333       0.37500000 </v>
   <v>       0.41666667      -0.08333333       0.37500000 </v>
   <v>      -0.41666667      -0.08333333       0.37500000 </v>
   <v>      -0.25000000      -0.08333333       0.37500000 </v>
   <v>      -0.08333333      -0.08333333       0.37500000 </v>
  </varray>
  <varray name="weights" >
   <v>       0.01388889 </v>
   <v>       0.01388889 </v>
   <v>       0.01388889 </v>
   <v>       0.01388889 </v>
   <v>       0.01388889 </v>
   <v>       0.01388889 </v>
   <v>       0.01388889 </v>
   <v>       0.01388889 </v>
   <v>       0.01388889 </v>
   <v>       0.01388889 </v>
   <v>       0.01388889 </v>
   <v>       0.01388889 </v>
   <v>       0.01388889 </v>
   <v>       0.01388889 </v>
   <v>       0.01388889 </v>
   <v>       0.01388889 </v>
   <v>       0.01388889 </v>
   <v>       0.01388889 </v>
   <v>       0.01388889 </v>
   <v>       0.01388889 </v>
   <v>       0.01388889 </v>
   <v>       0.01388889 </v>
   <v>       0.01388889 </v>
   <v>       0.01388889 </v>
   <v>       0.01388889 </v>
   <v>       0.01388889 </v>
   <v>       0.01388889 </v>
   <v>       0.01388889 </v>
   <v>       0.01388889 </v>
   <v>       0.01388889 </v>
   <v>       0.01388889 </v>
   <v>       0.01388889 </v>
   <v>       0.01388889 </v>
   <v>       0.01388889 </v>
   <v>       0.01388889 </v>
   <v>       0.01388889 </v>
   <v>       0.01388889 </v>
   <v>       0.01388889 </v>
   <v>       0.01388889 </v>
   <v>       0.01388889 </v>
   <v>       0.01388889 </v>
   <v>       0.01388889 </v>
   <v>       0.01388889 </v>
   <v>       0.01388889 </v>
   <v>       0.01388889 </v>
   <v>       0.01388889 </v>
   <v>       0.01388889 </v>
   <v>       0.01388889 </v>
   <v>       0.01388889 </v>
   <v>       0.01388889 </v>
   <v>       0.01388889 </v>
   <v>       0.01388889 </v>
   <v>       0.01388889 </v>
   <v>       0.01388889 </v>
   <v>       0.01388889 </v>
   <v>       0.01388889 </v>
   <v>       0.01388889 </v>
   <v>       0.01388889 </v>
   <v>       0.01388889 </v>
   <v>       0.01388889 </v>
   <v>       0.01388889 </v>
   <v>       0.01388889 </v>
   <v>       0.01388889 </v>
   <v>       0.01388889 </v>
   <v>       0.01388889 </v>
   <v>       0.01388889 </v>
   <v>       0.01388889 </v>
   <v>       0.01388889 </v>
   <v>       0.01388889 </v>
   <v>       0.01388889 </v>
   <v>       0.01388889 </v>
   <v>       0.01388889 </v>
  </varray>
 </kpoints>
 <parameters>
  <separator name="general" >
   <i type="string" name="SYSTEM">unknown system</i>
   <i type="logical" name="LCOMPAT"> F  </i>
  </separator>
  <separator name="electronic" >
   <i type="string" name="PREC">accura</i>
   <i name="ENMAX">    500.00000000</i>
   <i name="ENAUG">    402.10800000</i>
   <i name="EDIFF">      0.00000100</i>
   <i type="int" name="IALGO">    38</i>
   <i type="int" name="IWAVPR">    10</i>
   <i type="int" name="NBANDS">    42</i>
   <i type="int" name="NBANDSLOW">    -1</i>
   <i type="int" name="NBANDSHIGH">    -1</i>
   <i name="NELECT">     54.00000000</i>
   <i type="int" name="TURBO">     0</i>
   <i type="int" name="IRESTART">     0</i>
   <i type="int" name="NREBOOT">     0</i>
   <i type="int" name="NMIN">     0</i>
   <i name="EREF">      0.00000000</i>
   <separator name="electronic smearing" >
    <i type="int" name="ISMEAR">     0</i>
    <i name="SIGMA">      0.05000000</i>
    <i name="KSPACING">      0.50000000</i>
    <i type="logical" name="KGAMMA"> T  </i>
    <i type="logical" name="KBLOWUP"> T  </i>
   </separator>
   <separator name="electronic projectors" >
    <i type="logical" name="LREAL"> F  </i>
    <v name="ROPT">      0.00000000      0.00000000</v>
    <i type="int" name="LMAXPAW">  -100</i>
    <i type="int" name="LMAXMIX">     2</i>
    <i type="logical" name="NLSPLINE"> F  </i>
   </separator>
   <separator name="electronic startup" >
    <i type="int" name="ISTART">     0</i>
    <i type="int" name="ICHARG">     2</i>
    <i type="int" name="INIWAV">     1</i>
   </separator>
   <separator name="electronic spin" >
    <i type="int" name="ISPIN">     2</i>
    <i type="logical" name="LNONCOLLINEAR"> F  </i>
    <v name="MAGMOM">      3.00000000      3.00000000      0.60000000      0.60000000      0.60000000      0.60000000      0.60000000      0.60000000</v>
    <i name="NUPDOWN">     -1.00000000</i>
    <i type="logical" name="LSORBIT"> F  </i>
    <v name="SAXIS">      0.00000000      0.00000000      1.00000000</v>
    <i type="logical" name="LSPIRAL"> F  </i>
    <v name="QSPIRAL">      0.00000000      0.00000000      0.00000000</v>
    <i type="logical" name="LZEROZ"> F  </i>
   </separator>
   <separator name="electronic exchange-correlation" >
    <i type="logical" name="LASPH"> F  </i>
   </separator>
   <separator name="electronic convergence" >
    <i type="int" name="NELM">    60</i>
    <i type="int" name="NELMDL">    -5</i>
    <i type="int" name="NELMIN">     2</i>
    <i name="ENINI">    500.00000000</i>
    <separator name="electronic convergence detail" >
     <i type="logical" name="LDIAG"> T  </i>
     <i type="logical" name="LSUBROT"> F  </i>
     <i type="logical" name="LROBUST"> F  </i>
     <i type="int" name="ISEARCH">     0</i>
     <i name="WEIMIN">      0.00000000</i>
     <i name="EBREAK">      0.00000001</i>
     <i name="DEPER">      0.30000000</i>
     <i type="int" name="NRMM">     4</i>
     <i name="TIME">      0.40000000</i>
    </separator>
   </separator>
   <separator name="electronic mixer" >
    <i name="AMIX">      0.40000000</i>
    <i name="BMIX">      1.00000000</i>
    <i name="AMIN">      0.10000000</i>
    <i name="AMIX_MAG">      1.60000000</i>
    <i name="BMIX_MAG">      1.00000000</i>
    <separator name="electronic mixer details" >
     <i type="int" name="IMIX">     4</i>
     <i type="logical" name="MIXFIRST"> F  </i>
     <i type="int" name="MAXMIX">   -45</i>
     <i name="WC">    100.00000000</i>
     <i type="int" name="INIMIX">     1</i>
     <i type="int" name="MIXPRE">     1</i>
     <i type="int" name="MREMOVE">     5</i>
    </separator>
   </separator>
   <separator name="electronic dipolcorrection" >
    <i type="logical" name="LDIPOL"> F  </i>
    <i type="logical" name="LMONO"> F  </i>
    <i type="int" name="IDIPOL">     0</i>
    <i name="EPSILON">      1.00000000</i>
    <v name="DIPOL">   -100.00000000   -100.00000000   -100.00000000</v>
    <i name="EFIELD">      0.00000000</i>
    <i type="logical" name="LVACPOTAV"> F  </i>
   </separator>
  </separator>
  <separator name="grids" >
   <i type="int" name="NGX">    48</i>
   <i type="int" name="NGY">    48</i>
   <i type="int" name="NGZ">   168</i>
   <i type="int" name="NGXF">    96</i>
   <i type="int" name="NGYF">    96</i>
   <i type="int" name="NGZF">   336</i>
   <i type="logical" name="ADDGRID"> F  </i>
  </separator>
  <separator name="ionic" >
   <i type="int" name="NSW">     0</i>
   <i type="int" name="IBRION">    -1</i>
   <i type="int" name="MDALGO">     0</i>
   <i type="int" name="ISIF">     2</i>
   <i name="PSTRESS">      0.00000000</i>
   <i name="EDIFFG">      0.00001000</i>
   <i type="int" name="NFREE">     0</i>
   <i name="POTIM">      0.50000000</i>
   <i name="SMASS">     -3.00000000</i>
   <i name="SCALEE">      1.00000000</i>
  </separator>
  <separator name="ionic md" >
   <i name="TEBEG">      0.00010000</i>
   <i name="TEEND">      0.00010000</i>
   <i type="int" name="NBLOCK">     1</i>
   <i type="int" name="KBLOCK">     1</i>
   <i type="int" name="NPACO">   256</i>
   <i name="APACO">     10.00000000</i>
  </separator>
  <separator name="symmetry" >
   <i type="int" name="ISYM">     0</i>
   <i name="SYMPREC">      0.00001000</i>
  </separator>
  <separator name="dos" >
   <i type="int" name="LORBIT">     0</i>
   <v name="RWIGS">     -1.00000000     -1.00000000</v>
   <i type="int" name="NEDOS">   301</i>
   <i name="EMIN">     10.00000000</i>
   <i name="EMAX">    -10.00000000</i>
   <i name="EFERMI">      0.00000000</i>
  </separator>
  <separator name="writing" >
   <i type="int" name="NWRITE">     2</i>
   <i type="logical" name="LWAVE"> F  </i>
   <i type="logical" name="LDOWNSAMPLE"> F  </i>
   <i type="logical" name="LCHARG"> F  </i>
   <i type="logical" name="LPARD"> F  </i>
   <i type="logical" name="LVTOT"> F  </i>
   <i type="logical" name="LVHAR"> F  </i>
   <i type="logical" name="LELF"> F  </i>
   <i type="logical" name="LOPTICS"> F  </i>
   <v name="STM">      0.00000000      0.00000000      0.00000000      0.00000000      0.00000000      0.00000000      0.00000000</v>
  </separator>
  <separator name="performance" >
   <i type="int" name="NPAR">    42</i>
   <i type="int" name="NSIM">     4</i>
   <i type="int" name="NBLK">    -1</i>
   <i type="logical" name="LPLANE"> T  </i>
   <i type="logical" name="LSCALAPACK"> T  </i>
   <i type="logical" name="LSCAAWARE"> F  </i>
   <i type="logical" name="LSCALU"> F  </i>
   <i type="logical" name="LASYNC"> F  </i>
   <i type="logical" name="LORBITALREAL"> F  </i>
  </separator>
  <separator name="miscellaneous" >
   <i type="int" name="IDIOT">     3</i>
   <i type="int" name="PHON_NSTRUCT">    -1</i>
   <i type="logical" name="LMUSIC"> F  </i>
   <v name="POMASS">     51.99600000     35.45300000</v>
   <v name="DARWINR">      0.00000000      0.00000000</v>
   <v name="DARWINV">      1.00000000      1.00000000</v>
   <i type="logical" name="LCORR"> T  </i>
  </separator>
  <i type="logical" name="GGA_COMPAT"> T  </i>
  <i type="logical" name="LBERRY"> F  </i>
  <i type="int" name="ICORELEVEL">     0</i>
  <i type="logical" name="LDAU"> F  </i>
  <i type="int" name="I_CONSTRAINED_M">     0</i>
  <separator name="electronic exchange-correlation" >
   <i type="string" name="GGA    ">PE</i>
   <i type="string" name="XC_C">1</i>
   <i type="int" name="VOSKOWN">     0</i>
   <i type="logical" name="LHFCALC"> F  </i>
   <i type="string" name="PRECFOCK"></i>
   <i type="logical" name="LSYMGRAD"> F  </i>
   <i type="logical" name="LHFONE"> F  </i>
   <i type="logical" name="LRHFCALC"> F  </i>
   <i type="logical" name="LTHOMAS"> F  </i>
   <i type="logical" name="LMODELHF"> F  </i>
   <i type="logical" name="LFOCKACE"> F  </i>
   <i name="ENCUT4O">     -1.00000000</i>
   <i type="int" name="EXXOEP">     0</i>
   <i type="int" name="FOURORBIT">     0</i>
   <i name="AEXX">      0.00000000</i>
   <i name="HFALPHA">      0.00000000</i>
   <i name="MCALPHA">      0.00000000</i>
   <i name="ALDAX">      1.00000000</i>
   <i name="AGGAX">      1.00000000</i>
   <i name="AMGGAX">      1.00000000</i>
   <i name="ALDAC">      1.00000000</i>
   <i name="AGGAC">      1.00000000</i>
   <i name="AMGGAC">      1.00000000</i>
   <i type="int" name="NKREDX">     1</i>
   <i type="int" name="NKREDY">     1</i>
   <i type="int" name="NKREDZ">     1</i>
   <i type="logical" name="SHIFTRED"> F  </i>
   <i type="logical" name="ODDONLY"> F  </i>
   <i type="logical" name="EVENONLY"> F  </i>
   <i type="int" name="LMAXFOCK">     0</i>
   <i type="int" name="NMAXFOCKAE">     0</i>
   <i type="logical" name="LFOCKAEDFT"> F  </i>
   <i name="HFSCREEN">      0.00000000</i>
   <i name="HFSCREENC">      0.00000000</i>
   <i type="int" name="NBANDSGWLOW">     0</i>
  </separator>
  <separator name="vdW DFT" >
   <i type="logical" name="LUSE_VDW"> F  </i>
   <i type="int" name="IVDW_NL">    -1</i>
   <i type="logical" name="LSPIN_VDW"> F  </i>
   <i name="ZAB_VDW">     -0.84910000</i>
   <i name="GAMMA_VDW">      1.39626340</i>
   <i name="ALPHA_VDW">      0.00000000</i>
   <i name="PARAM1">      0.12340000</i>
   <i name="PARAM2">      1.00000000</i>
   <i name="BPARAM">      6.30000000</i>
   <i name="CPARAM">      0.00930000</i>
  </separator>
  <separator name="model GW" >
   <i type="int" name="MODEL_GW">     0</i>
   <i name="MODEL_EPS0">     56.09861994</i>
   <i name="MODEL_ALPHA">      1.00000000</i>
  </separator>
  <separator name="linear response parameters" >
   <i type="logical" name="LEPSILON"> F  </i>
   <i type="logical" name="LRPA"> F  </i>
   <i type="logical" name="LNABLA"> F  </i>
   <i type="logical" name="LVEL"> F  </i>
   <i name="CSHIFT">      0.10000000</i>
   <i name="OMEGAMAX">     -1.00000000</i>
   <i name="DEG_THRESHOLD">      0.00200000</i>
   <i name="RTIME">     -0.10000000</i>
   <i name="WPLASMAI">      0.00000000</i>
   <v name="DFIELD">      0.00000000      0.00000000      0.00000000</v>
   <v name="WPLASMA">      0.00000000      0.00000000      0.00000000      0.00000000      0.00000000      0.00000000      0.00000000      0.00000000      0.00000000</v>
  </separator>
  <separator name="orbital magnetization" >
   <i type="logical" name="NUCIND"> F  </i>
   <v name="MAGPOS">      0.00000000      0.00000000      0.00000000</v>
   <i type="logical" name="LNICSALL"> T  </i>
   <i type="logical" name="ORBITALMAG"> F  </i>
   <i type="logical" name="LMAGBLOCH"> F  </i>
   <i type="logical" name="LCHIMAG"> F  </i>
   <i type="logical" name="LGAUGE"> T  </i>
   <i type="int" name="MAGATOM">     0</i>
   <v name="MAGDIPOL">      0.00000000      0.00000000      0.00000000</v>
   <v name="AVECCONST">      0.00000000      0.00000000      0.00000000</v>
  </separator>
  <separator name="response functions" >
   <i type="logical" name="LALL_IN_ONE"> F  </i>
   <i type="int" name="IALL_IN_ONE">    -1</i>
   <i type="int" name="NBANDS_WAVE">    -1</i>
   <i type="logical" name="LFINITE_TEMPERATURE"> F  </i>
   <i type="logical" name="LADDER"> F  </i>
   <i type="logical" name="LRPAFORCE"> F  </i>
   <i type="logical" name="LFXC"> F  </i>
   <i type="logical" name="LHARTREE"> T  </i>
   <i type="int" name="IBSE">     2</i>
   <v type="int" name="KPOINT">    -1     0     0     0</v>
   <i type="logical" name="LTCTC"> F  </i>
   <i type="logical" name="LTCTE"> F  </i>
   <i type="logical" name="LTETE"> F  </i>
   <i type="logical" name="LTRIPLET"> F  </i>
   <i type="logical" name="LFXCEPS"> F  </i>
   <i type="logical" name="LFXHEG"> F  </i>
   <i type="int" name="NATURALO">     2</i>
   <i type="logical" name="LHOLEGF"> F  </i>
   <i type="logical" name="L2ORDER"> F  </i>
   <i type="logical" name="LDMP1"> F  </i>
   <i type="logical" name="LMP2LT"> F  </i>
   <i type="logical" name="LSMP2LT"> F  </i>
   <i type="logical" name="LGWLF"> F  </i>
   <i name="ENCUTGW">     -1.60000002</i>
   <i name="ENCUTGWSOFT">     -1.60000002</i>
   <i name="ENCUTLF">     -1.00000000</i>
   <i type="logical" name="ESF_SPLINES"> F  </i>
   <i name="ESF_CONV">      0.01000000</i>
   <i type="int" name="ESF_NINTER">    15</i>
   <i type="int" name="LMAXMP2">    -1</i>
   <i name="SCISSOR">      0.00000000</i>
   <i type="int" name="NOMEGA">     0</i>
   <i type="int" name="NOMEGAR">     0</i>
   <i type="int" name="NBANDSGW">    -1</i>
   <i type="int" name="NBANDSO">    -1</i>
   <i type="int" name="NBANDSV">    -1</i>
   <i type="int" name="NELMGW">     1</i>
   <i type="int" name="NELMHF">     1</i>
   <i type="int" name="DIM">     3</i>
   <i type="int" name="IESPILON">     4</i>
   <i type="int" name="ANTIRES">     0</i>
   <i name="OMEGAMAX">    -30.00000000</i>
   <i name="OMEGAMIN">    -30.00000000</i>
   <i name="OMEGATL">   -200.00000000</i>
   <i type="int" name="OMEGAGRID">     0</i>
   <i name="CSHIFT">     -0.10000000</i>
   <i type="logical" name="LSELFENERGY"> F  </i>
   <i type="logical" name="LSPECTRAL"> F  </i>
   <i type="logical" name="LSPECTRALGW"> F  </i>
   <i type="logical" name="LSINGLES"> F  </i>
   <i type="logical" name="LFERMIGW"> F  </i>
   <i type="logical" name="ODDONLYGW"> F  </i>
   <i type="logical" name="EVENONLYGW"> F  </i>
   <i type="int" name="NKREDLFX">     1</i>
   <i type="int" name="NKREDLFY">     1</i>
   <i type="int" name="NKREDLFZ">     1</i>
   <i type="int" name="MAXMEM">  2800</i>
   <i type="int" name="TELESCOPE">     0</i>
   <i type="int" name="NTAUPAR">    -1</i>
   <i type="int" name="NOMEGAPAR">    -1</i>
   <i name="DAMP_NEWTON">      0.80000001</i>
   <i name="LAMBDA">      1.00000000</i>
  </separator>
  <separator name="External order field" >
   <i name="OFIELD_KAPPA">      0.00000000</i>
   <v name="OFIELD_K">      0.00000000      0.00000000      0.00000000</v>
   <i name="OFIELD_Q6_NEAR">      0.00000000</i>
   <i name="OFIELD_Q6_FAR">      0.00000000</i>
   <i name="OFIELD_A">      0.00000000</i>
  </separator>
  <separator name="optional k-points parameters" >
   <i type="int" name="KPOINTS_OPT_MODE">     1</i>
   <i type="logical" name="LKPOINTS_OPT"> F  </i>
  </separator>
 </parameters>
 <atominfo>
  <atoms>       8 </atoms>
  <types>       2 </types>
  <array name="atoms" >
   <dimension dim="1">ion</dimension>
   <field type="string">element</field>
   <field type="int">atomtype</field>
   <set>
    <rc><c>Cr</c><c>   1</c></rc>
    <rc><c>Cr</c><c>   1</c></rc>
    <rc><c>Cl</c><c>   2</c></rc>
    <rc><c>Cl</c><c>   2</c></rc>
    <rc><c>Cl</c><c>   2</c></rc>
    <rc><c>Cl</c><c>   2</c></rc>
    <rc><c>Cl</c><c>   2</c></rc>
    <rc><c>Cl</c><c>   2</c></rc>
   </set>
  </array>
  <array name="atomtypes" >
   <dimension dim="1">type</dimension>
   <field type="int">atomspertype</field>
   <field type="string">element</field>
   <field>mass</field>
   <field>valence</field>
   <field type="string">pseudopotential</field>
   <set>
    <rc><c>   2</c><c>Cr</c><c>     51.99600000</c><c>      6.00000000</c><c>  PAW_PBE Cr 06Sep2000                  </c></rc>
    <rc><c>   6</c><c>Cl</c><c>     35.45300000</c><c>      7.00000000</c><c>  PAW_PBE Cl 06Sep2000                  </c></rc>
   </set>
  </array>
 </atominfo>
 <structure name="initialpos" >
  <crystal>
   <varray name="basis" >
    <v>       6.15408800      -0.00274500       0.00061100 </v>
    <v>      -3.07942100       5.32782100       0.00067500 </v>
    <v>       0.00231000       0.00427900      22.81863100 </v>
   </varray>
   <i name="volume">    747.98159913 </i>
   <varray name="rec_basis" >
    <v>       0.16253552       0.09394372      -0.00003407 </v>
    <v>       0.00008375       0.18774240      -0.00003521 </v>
    <v>      -0.00000435      -0.00000807       0.04382384 </v>
   </varray>
  </crystal>
  <varray name="positions" >
   <v>       0.66667703       0.33331061       0.50000070 </v>
   <v>       0.99998926       0.00002187       0.50000053 </v>
   <v>       0.33311315       0.02907181       0.55799819 </v>
   <v>       0.97139074       0.30473277       0.55784902 </v>
   <v>       0.69575945       0.66644706       0.55800373 </v>
   <v>       0.69527690       0.02859586       0.44215010 </v>
   <v>       0.33355667       0.30426630       0.44200082 </v>
   <v>       0.97090416       0.66688184       0.44199540 </v>
  </varray>
 </structure>
 <calculation>
  <scstep>
   <time name="dav">  226.94  453.90</time>
   <time name="total">  230.10  460.24</time>
   <energy>
    <i name="alphaZ">     23.01523305 </i>
    <i name="ewald">   7673.06934580 </i>
    <i name="hartreedc"> -10328.30805651 </i>
    <i name="XCdc">     82.57734315 </i>
    <i name="pawpsdc">   2504.62862977 </i>
    <i name="pawaedc">  -2465.96035111 </i>
    <i name="eentropy">     -0.01003312 </i>
    <i name="bandstr">    -67.71902857 </i>
    <i name="atom">   3012.10669636 </i>
    <i name="e_fr_energy">    433.39977883 </i>
    <i name="e_wo_entrp">    433.40981195 </i>
    <i name="e_0_energy">    433.40479539 </i>
   </energy>
  </scstep>
  <scstep>
   <time name="dav">  318.77  637.58</time>
   <time name="total">  319.56  639.18</time>
   <energy>
    <i name="e_fr_energy">      5.58871114 </i>
    <i name="e_wo_entrp">      5.59354612 </i>
    <i name="e_0_energy">      5.59112863 </i>
   </energy>
  </scstep>
  <scstep>
   <time name="dav">  225.81  451.65</time>
   <time name="total">  226.01  452.05</time>
   <energy>
    <i name="e_fr_energy">    -41.69119133 </i>
    <i name="e_wo_entrp">    -41.69119133 </i>
    <i name="e_0_energy">    -41.69119133 </i>
   </energy>
  </scstep>
  <scstep>
   <time name="dav">  361.18  722.41</time>
   <time name="total">  361.37  722.80</time>
   <energy>
    <i name="e_fr_energy">    -42.78596477 </i>
    <i name="e_wo_entrp">    -42.78596477 </i>
    <i name="e_0_energy">    -42.78596477 </i>
   </energy>
  </scstep>
  <scstep>
   <time name="dav">  308.92  617.88</time>
   <time name="total">  318.46  636.98</time>
   <energy>
    <i name="e_fr_energy">    -42.78814019 </i>
    <i name="e_wo_entrp">    -42.78814019 </i>
    <i name="e_0_energy">    -42.78814019 </i>
   </energy>
  </scstep>
  <scstep>
   <time name="dav">  328.26  656.58</time>
   <time name="total">  340.98  682.01</time>
   <energy>
    <i name="e_fr_energy">    -36.51898589 </i>
    <i name="e_wo_entrp">    -36.51898589 </i>
    <i name="e_0_energy">    -36.51898589 </i>
   </energy>
  </scstep>
  <scstep>
   <time name="dav">  281.88  563.80</time>
   <time name="total">  294.40  588.85</time>
   <energy>
    <i name="e_fr_energy">    -34.46729335 </i>
    <i name="e_wo_entrp">    -34.46729335 </i>
    <i name="e_0_energy">    -34.46729335 </i>
   </energy>
  </scstep>
  <scstep>
   <time name="dav">  305.60  611.25</time>
   <time name="total">  319.24  638.55</time>
   <energy>
    <i name="e_fr_energy">    -34.82033109 </i>
    <i name="e_wo_entrp">    -34.82033109 </i>
    <i name="e_0_energy">    -34.82033109 </i>
   </energy>
  </scstep>
  <scstep>
   <time name="dav">  312.72  625.49</time>
   <time name="total">  326.34  652.72</time>
   <energy>
    <i name="e_fr_energy">    -36.11702999 </i>
    <i name="e_wo_entrp">    -36.11702999 </i>
    <i name="e_0_energy">    -36.11702999 </i>
   </energy>
  </scstep>
  <scstep>
   <time name="dav">  312.91  625.87</time>
   <time name="total">  325.02  650.10</time>
   <energy>
    <i name="e_fr_energy">    -36.82197188 </i>
    <i name="e_wo_entrp">    -36.82197188 </i>
    <i name="e_0_energy">    -36.82197188 </i>
   </energy>
  </scstep>
  <scstep>
   <time name="dav">  299.11  598.26</time>
   <time name="total">  312.64  625.32</time>
   <energy>
    <i name="e_fr_energy">    -37.58591522 </i>
    <i name="e_wo_entrp">    -37.58591522 </i>
    <i name="e_0_energy">    -37.58591522 </i>
   </energy>
  </scstep>
  <scstep>
   <time name="dav">  236.52  473.06</time>
   <time name="total">  250.15  500.35</time>
   <energy>
    <i name="e_fr_energy">    -38.28542577 </i>
    <i name="e_wo_entrp">    -38.28542577 </i>
    <i name="e_0_energy">    -38.28542577 </i>
   </energy>
  </scstep>
  <scstep>
   <time name="dav">  285.20  570.45</time>
   <time name="total">  299.12  598.27</time>
   <energy>
    <i name="e_fr_energy">    -38.58524583 </i>
    <i name="e_wo_entrp">    -38.58524583 </i>
    <i name="e_0_energy">    -38.58524583 </i>
   </energy>
  </scstep>
  <scstep>
   <time name="dav">  269.90  539.84</time>
   <time name="total">  283.54  567.12</time>
   <energy>
    <i name="e_fr_energy">    -38.76744404 </i>
    <i name="e_wo_entrp">    -38.76744404 </i>
    <i name="e_0_energy">    -38.76744404 </i>
   </energy>
  </scstep>
  <scstep>
   <time name="dav">  228.18  419.96</time>
   <time name="total">  238.33  432.30</time>
   <energy>
    <i name="e_fr_energy">    -38.84795513 </i>
    <i name="e_wo_entrp">    -38.84795513 </i>
    <i name="e_0_energy">    -38.84795513 </i>
   </energy>
  </scstep>
  <scstep>
   <time name="dav">  102.49  102.53</time>
   <time name="total">  110.83  110.88</time>
   <energy>
    <i name="e_fr_energy">    -38.86588722 </i>
    <i name="e_wo_entrp">    -38.86588722 </i>
    <i name="e_0_energy">    -38.86588722 </i>
   </energy>
  </scstep>
  <scstep>
   <time name="dav">   88.38   88.41</time>
   <time name="total">   96.71   96.75</time>
   <energy>
    <i name="e_fr_energy">    -38.87489892 </i>
    <i name="e_wo_entrp">    -38.87489892 </i>
    <i name="e_0_energy">    -38.87489892 </i>
   </energy>
  </scstep>
  <scstep>
   <time name="dav">   99.47   99.51</time>
   <time name="total">  107.80  107.85</time>
   <energy>
    <i name="e_fr_energy">    -38.87599148 </i>
    <i name="e_wo_entrp">    -38.87599148 </i>
    <i name="e_0_energy">    -38.87599148 </i>
   </energy>
  </scstep>
  <scstep>
   <time name="dav">   86.12   86.16</time>
   <time name="total">   94.47   94.52</time>
   <energy>
    <i name="e_fr_energy">    -38.87666285 </i>
    <i name="e_wo_entrp">    -38.87666285 </i>
    <i name="e_0_energy">    -38.87666285 </i>
   </energy>
  </scstep>
  <scstep>
   <time name="dav">   91.26   91.30</time>
   <time name="total">   99.59   99.63</time>
   <energy>
    <i name="e_fr_energy">    -38.87724456 </i>
    <i name="e_wo_entrp">    -38.87724456 </i>
    <i name="e_0_energy">    -38.87724456 </i>
   </energy>
  </scstep>
  <scstep>
   <time name="dav">   89.78   89.82</time>
   <time name="total">   98.12   98.17</time>
   <energy>
    <i name="e_fr_energy">    -38.87763271 </i>
    <i name="e_wo_entrp">    -38.87763271 </i>
    <i name="e_0_energy">    -38.87763271 </i>
   </energy>
  </scstep>
  <scstep>
   <time name="dav">  113.11  113.15</time>
   <time name="total">  121.47  121.52</time>
   <energy>
    <i name="e_fr_energy">    -38.87774399 </i>
    <i name="e_wo_entrp">    -38.87774399 </i>
    <i name="e_0_energy">    -38.87774399 </i>
   </energy>
  </scstep>
  <scstep>
   <time name="dav">   95.47   95.51</time>
   <time name="total">  103.82  103.86</time>
   <energy>
    <i name="e_fr_energy">    -38.87782309 </i>
    <i name="e_wo_entrp">    -38.87782309 </i>
    <i name="e_0_energy">    -38.87782309 </i>
   </energy>
  </scstep>
  <scstep>
   <time name="dav">  116.12  116.16</time>
   <time name="total">  124.48  124.53</time>
   <energy>
    <i name="e_fr_energy">    -38.87784253 </i>
    <i name="e_wo_entrp">    -38.87784253 </i>
    <i name="e_0_energy">    -38.87784253 </i>
   </energy>
  </scstep>
  <scstep>
   <time name="dav">   89.81   89.84</time>
   <time name="total">   98.15   98.19</time>
   <energy>
    <i name="e_fr_energy">    -38.87788266 </i>
    <i name="e_wo_entrp">    -38.87788266 </i>
    <i name="e_0_energy">    -38.87788266 </i>
   </energy>
  </scstep>
  <scstep>
   <time name="dav">   97.74   97.78</time>
   <time name="total">  106.10  106.14</time>
   <energy>
    <i name="e_fr_energy">    -38.87789405 </i>
    <i name="e_wo_entrp">    -38.87789405 </i>
    <i name="e_0_energy">    -38.87789405 </i>
   </energy>
  </scstep>
  <scstep>
   <time name="dav">  107.60  107.64</time>
   <time name="total">  115.96  116.01</time>
   <energy>
    <i name="e_fr_energy">    -38.87789738 </i>
    <i name="e_wo_entrp">    -38.87789738 </i>
    <i name="e_0_energy">    -38.87789738 </i>
   </energy>
  </scstep>
  <scstep>
   <time name="dav">   82.64   82.67</time>
   <time name="total">   91.01   91.04</time>
   <energy>
    <i name="e_fr_energy">    -38.87790206 </i>
    <i name="e_wo_entrp">    -38.87790206 </i>
    <i name="e_0_energy">    -38.87790206 </i>
   </energy>
  </scstep>
  <scstep>
   <time name="dav">   92.88   92.92</time>
   <time name="total">  101.22  101.27</time>
   <energy>
    <i name="e_fr_energy">    -38.87790317 </i>
    <i name="e_wo_entrp">    -38.87790317 </i>
    <i name="e_0_energy">    -38.87790317 </i>
   </energy>
  </scstep>
  <scstep>
   <time name="dav">  103.95  103.99</time>
   <time name="total">  104.33  104.37</time>
   <energy>
    <i name="alphaZ">     23.01523305 </i>
    <i name="ewald">   7673.06934580 </i>
    <i name="hartreedc"> -10334.20746641 </i>
    <i name="XCdc">     86.01245473 </i>
    <i name="pawpsdc">   3651.34970618 </i>
    <i name="pawaedc">  -3614.14473937 </i>
    <i name="eentropy">     -0.00000000 </i>
    <i name="bandstr">   -536.07913380 </i>
    <i name="atom">   3012.10669636 </i>
    <i name="e_fr_energy">    -38.87790344 </i>
    <i name="e_wo_entrp">    -38.87790344 </i>
    <i name="e_0_energy">    -38.87790344 </i>
   </energy>
  </scstep>
  <structure>
   <crystal>
    <varray name="basis" >
     <v>       6.15408800      -0.00274500       0.00061100 </v>
     <v>      -3.07942100       5.32782100       0.00067500 </v>
     <v>       0.00231000       0.00427900      22.81863100 </v>
    </varray>
    <i name="volume">    747.98159913 </i>
    <varray name="rec_basis" >
     <v>       0.16253552       0.09394372      -0.00003407 </v>
     <v>       0.00008375       0.18774240      -0.00003521 </v>
     <v>      -0.00000435      -0.00000807       0.04382384 </v>
    </varray>
   </crystal>
   <varray name="positions" >
    <v>       0.66667703       0.33331061       0.50000070 </v>
    <v>       0.99998926       0.00002187       0.50000053 </v>
    <v>       0.33311315       0.02907181       0.55799819 </v>
    <v>       0.97139074       0.30473277       0.55784902 </v>
    <v>       0.69575945       0.66644706       0.55800373 </v>
    <v>       0.69527690       0.02859586       0.44215010 </v>
    <v>       0.33355667       0.30426630       0.44200082 </v>
    <v>       0.97090416       0.66688184       0.44199540 </v>
   </varray>
  </structure>
  <varray name="forces" >
   <v>       0.00266420      -0.00129973      -0.00049004 </v>
   <v>      -0.00258105       0.00125737      -0.00031328 </v>
   <v>      -0.01751362       0.03328966      -0.03017979 </v>
   <v>      -0.02128210      -0.03708414      -0.02591630 </v>
   <v>       0.03775962       0.00165846      -0.03060850 </v>
   <v>       0.02121847       0.03725140       0.02617817 </v>
   <v>       0.01752115      -0.03353375       0.03048858 </v>
   <v>      -0.03778666      -0.00153926       0.03084117 </v>
  </varray>
  <varray name="stress" >
   <v>      -3.85613868       0.03314074      -0.00569175 </v>
   <v>       0.03314073      -3.81224532      -0.01238851 </v>
   <v>      -0.00569170      -0.01238846      -0.69721386 </v>
  </varray>
  <energy>
   <i name="e_fr_energy">    -38.87790344 </i>
   <i name="e_wo_entrp">    -38.87790344 </i>
   <i name="e_0_energy">    -38.87790344 </i>
  </energy>
  <time name="totalsc"> 6097.0410499.31</time>
  <eigenvalues>
   <array>
    <dimension dim="1">band</dimension>
    <dimension dim="2">kpoint</dimension>
    <dimension dim="3">spin</dimension>
    <field>eigene</field>
    <field>occ</field>
    <set>
     <set comment="spin 1">
      <set comment="kpoint 1">
       <r>  -19.8887    1.0000 </r>
       <r>  -19.0857    1.0000 </r>
       <r>  -19.0766    1.0000 </r>
       <r>  -19.0412    1.0000 </r>
       <r>  -18.8910    1.0000 </r>
       <r>  -18.8897    1.0000 </r>
       <r>   -9.6680    1.0000 </r>
       <r>   -9.1797    1.0000 </r>
       <r>   -8.7764    1.0000 </r>
       <r>   -8.7351    1.0000 </r>
       <r>   -8.7045    1.0000 </r>
       <r>   -8.6636    1.0000 </r>
       <r>   -8.3885    1.0000 </r>
       <r>   -8.3721    1.0000 </r>
       <r>   -8.2920    1.0000 </r>
       <r>   -7.5609    1.0000 </r>
       <r>   -7.3882    1.0000 </r>
       <r>   -7.3825    1.0000 </r>
       <r>   -6.7507    1.0000 </r>
       <r>   -6.5744    1.0000 </r>
       <r>   -6.4964    1.0000 </r>
       <r>   -6.3627    1.0000 </r>
       <r>   -6.2468    1.0000 </r>
       <r>   -6.2147    1.0000 </r>
       <r>   -5.5121    1.0000 </r>
       <r>   -5.2275    1.0000 </r>
       <r>   -5.2124    1.0000 </r>
       <r>   -5.0499    1.0000 </r>
       <r>   -4.9283    1.0000 </r>
       <r>   -4.9161    1.0000 </r>
       <r>   -3.1735    0.0000 </r>
       <r>   -3.1615    0.0000 </r>
       <r>   -2.9654    0.0000 </r>
       <r>   -2.8979    0.0000 </r>
       <r>    1.1265    0.0000 </r>
       <r>    1.6901    0.0000 </r>
       <r>    2.2033    0.0000 </r>
       <r>    2.7124    0.0000 </r>
       <r>    2.8740    0.0000 </r>
       <r>    2.9735    0.0000 </r>
       <r>    3.1845    0.0000 </r>
       <r>    3.9025    0.0000 </r>
      </set>
      <set comment="kpoint 2">
       <r>  -19.7697    1.0000 </r>
       <r>  -19.2078    1.0000 </r>
       <r>  -19.0721    1.0000 </r>
       <r>  -19.0379    1.0000 </r>
       <r>  -18.9098    1.0000 </r>
       <r>  -18.9068    1.0000 </r>
       <r>   -9.6098    1.0000 </r>
       <r>   -9.1521    1.0000 </r>
       <r>   -8.8209    1.0000 </r>
       <r>   -8.7476    1.0000 </r>
       <r>   -8.7253    1.0000 </r>
       <r>   -8.5158    1.0000 </r>
       <r>   -8.4896    1.0000 </r>
       <r>   -8.3470    1.0000 </r>
       <r>   -8.0794    1.0000 </r>
       <r>   -7.6099    1.0000 </r>
       <r>   -7.2432    1.0000 </r>
       <r>   -7.1272    1.0000 </r>
       <r>   -6.9889    1.0000 </r>
       <r>   -6.7899    1.0000 </r>
       <r>   -6.6103    1.0000 </r>
       <r>   -6.5646    1.0000 </r>
       <r>   -6.2836    1.0000 </r>
       <r>   -6.1475    1.0000 </r>
       <r>   -5.4625    1.0000 </r>
       <r>   -5.2544    1.0000 </r>
       <r>   -5.2257    1.0000 </r>
       <r>   -5.0013    1.0000 </r>
       <r>   -4.9045    1.0000 </r>
       <r>   -4.8116    1.0000 </r>
       <r>   -3.1731    0.0000 </r>
       <r>   -3.1497    0.0000 </r>
       <r>   -3.0816    0.0000 </r>
       <r>   -2.9331    0.0000 </r>
       <r>    1.6512    0.0000 </r>
       <r>    2.0196    0.0000 </r>
       <r>    2.5993    0.0000 </r>
       <r>    2.7937    0.0000 </r>
       <r>    3.1229    0.0000 </r>
       <r>    3.3063    0.0000 </r>
       <r>    3.3901    0.0000 </r>
       <r>    3.5490    0.0000 </r>
      </set>
      <set comment="kpoint 3">
       <r>  -19.6192    1.0000 </r>
       <r>  -19.3676    1.0000 </r>
       <r>  -19.0855    1.0000 </r>
       <r>  -18.9869    1.0000 </r>
       <r>  -18.9491    1.0000 </r>
       <r>  -18.9187    1.0000 </r>
       <r>   -9.5718    1.0000 </r>
       <r>   -9.0884    1.0000 </r>
       <r>   -8.8534    1.0000 </r>
       <r>   -8.7696    1.0000 </r>
       <r>   -8.6535    1.0000 </r>
       <r>   -8.5628    1.0000 </r>
       <r>   -8.4853    1.0000 </r>
       <r>   -8.1479    1.0000 </r>
       <r>   -7.9596    1.0000 </r>
       <r>   -7.6976    1.0000 </r>
       <r>   -7.4581    1.0000 </r>
       <r>   -7.2814    1.0000 </r>
       <r>   -6.9661    1.0000 </r>
       <r>   -6.8518    1.0000 </r>
       <r>   -6.5384    1.0000 </r>
       <r>   -6.4845    1.0000 </r>
       <r>   -6.2422    1.0000 </r>
       <r>   -6.1956    1.0000 </r>
       <r>   -5.5293    1.0000 </r>
       <r>   -5.2367    1.0000 </r>
       <r>   -5.2079    1.0000 </r>
       <r>   -4.9653    1.0000 </r>
       <r>   -4.9456    1.0000 </r>
       <r>   -4.7526    1.0000 </r>
       <r>   -3.2169    0.0000 </r>
       <r>   -3.1521    0.0000 </r>
       <r>   -3.0622    0.0000 </r>
       <r>   -2.9583    0.0000 </r>
       <r>    2.3774    0.0000 </r>
       <r>    2.5248    0.0000 </r>
       <r>    2.5301    0.0000 </r>
       <r>    2.7655    0.0000 </r>
       <r>    2.8835    0.0000 </r>
       <r>    3.1310    0.0000 </r>
       <r>    3.2710    0.0000 </r>
       <r>    3.3957    0.0000 </r>
      </set>
      <set comment="kpoint 4">
       <r>  -19.6893    1.0000 </r>
       <r>  -19.2941    1.0000 </r>
       <r>  -19.0802    1.0000 </r>
       <r>  -19.0131    1.0000 </r>
       <r>  -18.9276    1.0000 </r>
       <r>  -18.9143    1.0000 </r>
       <r>   -9.5827    1.0000 </r>
       <r>   -9.1225    1.0000 </r>
       <r>   -8.8402    1.0000 </r>
       <r>   -8.7647    1.0000 </r>
       <r>   -8.6756    1.0000 </r>
       <r>   -8.5617    1.0000 </r>
       <r>   -8.4745    1.0000 </r>
       <r>   -8.2692    1.0000 </r>
       <r>   -7.9226    1.0000 </r>
       <r>   -7.7105    1.0000 </r>
       <r>   -7.3831    1.0000 </r>
       <r>   -7.1261    1.0000 </r>
       <r>   -6.9889    1.0000 </r>
       <r>   -6.8729    1.0000 </r>
       <r>   -6.5812    1.0000 </r>
       <r>   -6.5361    1.0000 </r>
       <r>   -6.2659    1.0000 </r>
       <r>   -6.1547    1.0000 </r>
       <r>   -5.4974    1.0000 </r>
       <r>   -5.2442    1.0000 </r>
       <r>   -5.2191    1.0000 </r>
       <r>   -4.9832    1.0000 </r>
       <r>   -4.9210    1.0000 </r>
       <r>   -4.7722    1.0000 </r>
       <r>   -3.1953    0.0000 </r>
       <r>   -3.1557    0.0000 </r>
       <r>   -3.0731    0.0000 </r>
       <r>   -2.9507    0.0000 </r>
       <r>    2.0005    0.0000 </r>
       <r>    2.2565    0.0000 </r>
       <r>    2.6305    0.0000 </r>
       <r>    2.9035    0.0000 </r>
       <r>    3.0205    0.0000 </r>
       <r>    3.2592    0.0000 </r>
       <r>    3.3445    0.0000 </r>
       <r>    3.3968    0.0000 </r>
      </set>
      <set comment="kpoint 5">
       <r>  -19.8393    1.0000 </r>
       <r>  -19.1318    1.0000 </r>
       <r>  -19.0726    1.0000 </r>
       <r>  -19.0485    1.0000 </r>
       <r>  -18.8985    1.0000 </r>
       <r>  -18.8966    1.0000 </r>
       <r>   -9.6431    1.0000 </r>
       <r>   -9.1684    1.0000 </r>
       <r>   -8.8044    1.0000 </r>
       <r>   -8.7474    1.0000 </r>
       <r>   -8.7194    1.0000 </r>
       <r>   -8.5713    1.0000 </r>
       <r>   -8.4409    1.0000 </r>
       <r>   -8.3762    1.0000 </r>
       <r>   -8.2116    1.0000 </r>
       <r>   -7.5747    1.0000 </r>
       <r>   -7.2587    1.0000 </r>
       <r>   -7.2494    1.0000 </r>
       <r>   -6.8853    1.0000 </r>
       <r>   -6.6196    1.0000 </r>
       <r>   -6.5930    1.0000 </r>
       <r>   -6.5077    1.0000 </r>
       <r>   -6.2749    1.0000 </r>
       <r>   -6.1836    1.0000 </r>
       <r>   -5.4648    1.0000 </r>
       <r>   -5.2504    1.0000 </r>
       <r>   -5.2209    1.0000 </r>
       <r>   -5.0245    1.0000 </r>
       <r>   -4.9059    1.0000 </r>
       <r>   -4.8655    1.0000 </r>
       <r>   -3.1713    0.0000 </r>
       <r>   -3.1505    0.0000 </r>
       <r>   -3.0384    0.0000 </r>
       <r>   -2.9124    0.0000 </r>
       <r>    1.3520    0.0000 </r>
       <r>    1.8273    0.0000 </r>
       <r>    2.3642    0.0000 </r>
       <r>    2.9050    0.0000 </r>
       <r>    2.9241    0.0000 </r>
       <r>    3.1118    0.0000 </r>
       <r>    3.3507    0.0000 </r>
       <r>    3.5903    0.0000 </r>
      </set>
      <set comment="kpoint 6">
       <r>  -19.9145    1.0000 </r>
       <r>  -19.0939    1.0000 </r>
       <r>  -19.0478    1.0000 </r>
       <r>  -19.0351    1.0000 </r>
       <r>  -18.8869    1.0000 </r>
       <r>  -18.8862    1.0000 </r>
       <r>   -9.6778    1.0000 </r>
       <r>   -9.1900    1.0000 </r>
       <r>   -8.7651    1.0000 </r>
       <r>   -8.7249    1.0000 </r>
       <r>   -8.7150    1.0000 </r>
       <r>   -8.6926    1.0000 </r>
       <r>   -8.3742    1.0000 </r>
       <r>   -8.3541    1.0000 </r>
       <r>   -8.3099    1.0000 </r>
       <r>   -7.5584    1.0000 </r>
       <r>   -7.4772    1.0000 </r>
       <r>   -7.4722    1.0000 </r>
       <r>   -6.7136    1.0000 </r>
       <r>   -6.5171    1.0000 </r>
       <r>   -6.4329    1.0000 </r>
       <r>   -6.3208    1.0000 </r>
       <r>   -6.2290    1.0000 </r>
       <r>   -6.1619    1.0000 </r>
       <r>   -5.5498    1.0000 </r>
       <r>   -5.2183    1.0000 </r>
       <r>   -5.2050    1.0000 </r>
       <r>   -5.0706    1.0000 </r>
       <r>   -4.9533    1.0000 </r>
       <r>   -4.9433    1.0000 </r>
       <r>   -3.1719    0.0000 </r>
       <r>   -3.1706    0.0000 </r>
       <r>   -2.9143    0.0000 </r>
       <r>   -2.8900    0.0000 </r>
       <r>    1.0025    0.0000 </r>
       <r>    1.6168    0.0000 </r>
       <r>    2.1213    0.0000 </r>
       <r>    2.5825    0.0000 </r>
       <r>    2.7560    0.0000 </r>
       <r>    2.9890    0.0000 </r>
       <r>    3.1016    0.0000 </r>
       <r>    4.0614    0.0000 </r>
      </set>
      <set comment="kpoint 7">
       <r>  -19.7697    1.0000 </r>
       <r>  -19.2077    1.0000 </r>
       <r>  -19.0722    1.0000 </r>
       <r>  -19.0379    1.0000 </r>
       <r>  -18.9098    1.0000 </r>
       <r>  -18.9068    1.0000 </r>
       <r>   -9.6098    1.0000 </r>
       <r>   -9.1521    1.0000 </r>
       <r>   -8.8210    1.0000 </r>
       <r>   -8.7475    1.0000 </r>
       <r>   -8.7253    1.0000 </r>
       <r>   -8.5157    1.0000 </r>
       <r>   -8.4896    1.0000 </r>
       <r>   -8.3472    1.0000 </r>
       <r>   -8.0794    1.0000 </r>
       <r>   -7.6098    1.0000 </r>
       <r>   -7.2432    1.0000 </r>
       <r>   -7.1272    1.0000 </r>
       <r>   -6.9889    1.0000 </r>
       <r>   -6.7898    1.0000 </r>
       <r>   -6.6103    1.0000 </r>
       <r>   -6.5646    1.0000 </r>
       <r>   -6.2838    1.0000 </r>
       <r>   -6.1475    1.0000 </r>
       <r>   -5.4625    1.0000 </r>
       <r>   -5.2545    1.0000 </r>
       <r>   -5.2257    1.0000 </r>
       <r>   -5.0012    1.0000 </r>
       <r>   -4.9044    1.0000 </r>
       <r>   -4.8117    1.0000 </r>
       <r>   -3.1731    0.0000 </r>
       <r>   -3.1496    0.0000 </r>
       <r>   -3.0817    0.0000 </r>
       <r>   -2.9330    0.0000 </r>
       <r>    1.6512    0.0000 </r>
       <r>    2.0196    0.0000 </r>
       <r>    2.5994    0.0000 </r>
       <r>    2.7938    0.0000 </r>
       <r>    3.1229    0.0000 </r>
       <r>    3.3064    0.0000 </r>
       <r>    3.3901    0.0000 </r>
       <r>    3.5490    0.0000 </r>
      </set>
      <set comment="kpoint 8">
       <r>  -19.6287    1.0000 </r>
       <r>  -19.3413    1.0000 </r>
       <r>  -19.1067    1.0000 </r>
       <r>  -18.9960    1.0000 </r>
       <r>  -18.9316    1.0000 </r>
       <r>  -18.9230    1.0000 </r>
       <r>   -9.4494    1.0000 </r>
       <r>   -9.1700    1.0000 </r>
       <r>   -8.8752    1.0000 </r>
       <r>   -8.7778    1.0000 </r>
       <r>   -8.7149    1.0000 </r>
       <r>   -8.4892    1.0000 </r>
       <r>   -8.4635    1.0000 </r>
       <r>   -8.4155    1.0000 </r>
       <r>   -7.9188    1.0000 </r>
       <r>   -7.5869    1.0000 </r>
       <r>   -7.4415    1.0000 </r>
       <r>   -7.0656    1.0000 </r>
       <r>   -6.9089    1.0000 </r>
       <r>   -6.7493    1.0000 </r>
       <r>   -6.7103    1.0000 </r>
       <r>   -6.5379    1.0000 </r>
       <r>   -6.3989    1.0000 </r>
       <r>   -6.2376    1.0000 </r>
       <r>   -5.4825    1.0000 </r>
       <r>   -5.1829    1.0000 </r>
       <r>   -5.1622    1.0000 </r>
       <r>   -4.9838    1.0000 </r>
       <r>   -4.8696    1.0000 </r>
       <r>   -4.8549    1.0000 </r>
       <r>   -3.2114    0.0000 </r>
       <r>   -3.1282    0.0000 </r>
       <r>   -3.1247    0.0000 </r>
       <r>   -2.8927    0.0000 </r>
       <r>    2.1843    0.0000 </r>
       <r>    2.4161    0.0000 </r>
       <r>    2.6051    0.0000 </r>
       <r>    2.8091    0.0000 </r>
       <r>    3.0962    0.0000 </r>
       <r>    3.2116    0.0000 </r>
       <r>    3.2816    0.0000 </r>
       <r>    3.5639    0.0000 </r>
      </set>
      <set comment="kpoint 9">
       <r>  -19.5550    1.0000 </r>
       <r>  -19.4124    1.0000 </r>
       <r>  -19.1175    1.0000 </r>
       <r>  -18.9739    1.0000 </r>
       <r>  -18.9460    1.0000 </r>
       <r>  -18.9287    1.0000 </r>
       <r>   -9.3748    1.0000 </r>
       <r>   -9.1663    1.0000 </r>
       <r>   -8.9103    1.0000 </r>
       <r>   -8.7814    1.0000 </r>
       <r>   -8.7277    1.0000 </r>
       <r>   -8.4760    1.0000 </r>
       <r>   -8.4668    1.0000 </r>
       <r>   -8.3904    1.0000 </r>
       <r>   -8.0856    1.0000 </r>
       <r>   -7.4510    1.0000 </r>
       <r>   -7.3348    1.0000 </r>
       <r>   -7.0504    1.0000 </r>
       <r>   -6.9437    1.0000 </r>
       <r>   -6.9216    1.0000 </r>
       <r>   -6.6976    1.0000 </r>
       <r>   -6.4707    1.0000 </r>
       <r>   -6.3719    1.0000 </r>
       <r>   -6.3007    1.0000 </r>
       <r>   -5.5035    1.0000 </r>
       <r>   -5.1388    1.0000 </r>
       <r>   -5.1292    1.0000 </r>
       <r>   -4.9718    1.0000 </r>
       <r>   -4.9126    1.0000 </r>
       <r>   -4.8527    1.0000 </r>
       <r>   -3.2236    0.0000 </r>
       <r>   -3.1330    0.0000 </r>
       <r>   -3.1177    0.0000 </r>
       <r>   -2.8747    0.0000 </r>
       <r>    2.4098    0.0000 </r>
       <r>    2.5074    0.0000 </r>
       <r>    2.6779    0.0000 </r>
       <r>    2.7464    0.0000 </r>
       <r>    3.0142    0.0000 </r>
       <r>    3.1356    0.0000 </r>
       <r>    3.2681    0.0000 </r>
       <r>    3.4556    0.0000 </r>
      </set>
      <set comment="kpoint 10">
       <r>  -19.7064    1.0000 </r>
       <r>  -19.2684    1.0000 </r>
       <r>  -19.0882    1.0000 </r>
       <r>  -19.0203    1.0000 </r>
       <r>  -18.9190    1.0000 </r>
       <r>  -18.9141    1.0000 </r>
       <r>   -9.5423    1.0000 </r>
       <r>   -9.1625    1.0000 </r>
       <r>   -8.8471    1.0000 </r>
       <r>   -8.7657    1.0000 </r>
       <r>   -8.7127    1.0000 </r>
       <r>   -8.5100    1.0000 </r>
       <r>   -8.4623    1.0000 </r>
       <r>   -8.3996    1.0000 </r>
       <r>   -7.8521    1.0000 </r>
       <r>   -7.7098    1.0000 </r>
       <r>   -7.3941    1.0000 </r>
       <r>   -7.0881    1.0000 </r>
       <r>   -6.9406    1.0000 </r>
       <r>   -6.7612    1.0000 </r>
       <r>   -6.5975    1.0000 </r>
       <r>   -6.5654    1.0000 </r>
       <r>   -6.4040    1.0000 </r>
       <r>   -6.1711    1.0000 </r>
       <r>   -5.4606    1.0000 </r>
       <r>   -5.2329    1.0000 </r>
       <r>   -5.2009    1.0000 </r>
       <r>   -4.9925    1.0000 </r>
       <r>   -4.8839    1.0000 </r>
       <r>   -4.8203    1.0000 </r>
       <r>   -3.1906    0.0000 </r>
       <r>   -3.1407    0.0000 </r>
       <r>   -3.1100    0.0000 </r>
       <r>   -2.9157    0.0000 </r>
       <r>    1.9034    0.0000 </r>
       <r>    2.1957    0.0000 </r>
       <r>    2.7054    0.0000 </r>
       <r>    2.8222    0.0000 </r>
       <r>    2.9823    0.0000 </r>
       <r>    3.2557    0.0000 </r>
       <r>    3.4955    0.0000 </r>
       <r>    3.5507    0.0000 </r>
      </set>
      <set comment="kpoint 11">
       <r>  -19.8159    1.0000 </r>
       <r>  -19.1605    1.0000 </r>
       <r>  -19.0680    1.0000 </r>
       <r>  -19.0462    1.0000 </r>
       <r>  -18.9014    1.0000 </r>
       <r>  -18.9012    1.0000 </r>
       <r>   -9.6387    1.0000 </r>
       <r>   -9.1599    1.0000 </r>
       <r>   -8.7985    1.0000 </r>
       <r>   -8.7455    1.0000 </r>
       <r>   -8.7320    1.0000 </r>
       <r>   -8.5420    1.0000 </r>
       <r>   -8.4828    1.0000 </r>
       <r>   -8.3053    1.0000 </r>
       <r>   -8.2206    1.0000 </r>
       <r>   -7.5853    1.0000 </r>
       <r>   -7.2164    1.0000 </r>
       <r>   -7.1906    1.0000 </r>
       <r>   -6.9053    1.0000 </r>
       <r>   -6.7668    1.0000 </r>
       <r>   -6.6120    1.0000 </r>
       <r>   -6.5455    1.0000 </r>
       <r>   -6.2219    1.0000 </r>
       <r>   -6.1611    1.0000 </r>
       <r>   -5.4683    1.0000 </r>
       <r>   -5.2655    1.0000 </r>
       <r>   -5.2177    1.0000 </r>
       <r>   -5.0152    1.0000 </r>
       <r>   -4.9179    1.0000 </r>
       <r>   -4.8291    1.0000 </r>
       <r>   -3.1679    0.0000 </r>
       <r>   -3.1535    0.0000 </r>
       <r>   -3.0496    0.0000 </r>
       <r>   -2.9301    0.0000 </r>
       <r>    1.4577    0.0000 </r>
       <r>    1.8927    0.0000 </r>
       <r>    2.4443    0.0000 </r>
       <r>    2.8647    0.0000 </r>
       <r>    3.0069    0.0000 </r>
       <r>    3.2061    0.0000 </r>
       <r>    3.4588    0.0000 </r>
       <r>    3.5652    0.0000 </r>
      </set>
      <set comment="kpoint 12">
       <r>  -19.8393    1.0000 </r>
       <r>  -19.1317    1.0000 </r>
       <r>  -19.0726    1.0000 </r>
       <r>  -19.0486    1.0000 </r>
       <r>  -18.8986    1.0000 </r>
       <r>  -18.8966    1.0000 </r>
       <r>   -9.6432    1.0000 </r>
       <r>   -9.1683    1.0000 </r>
       <r>   -8.8044    1.0000 </r>
       <r>   -8.7473    1.0000 </r>
       <r>   -8.7195    1.0000 </r>
       <r>   -8.5713    1.0000 </r>
       <r>   -8.4408    1.0000 </r>
       <r>   -8.3763    1.0000 </r>
       <r>   -8.2117    1.0000 </r>
       <r>   -7.5746    1.0000 </r>
       <r>   -7.2587    1.0000 </r>
       <r>   -7.2495    1.0000 </r>
       <r>   -6.8851    1.0000 </r>
       <r>   -6.6196    1.0000 </r>
       <r>   -6.5931    1.0000 </r>
       <r>   -6.5077    1.0000 </r>
       <r>   -6.2750    1.0000 </r>
       <r>   -6.1836    1.0000 </r>
       <r>   -5.4649    1.0000 </r>
       <r>   -5.2504    1.0000 </r>
       <r>   -5.2209    1.0000 </r>
       <r>   -5.0245    1.0000 </r>
       <r>   -4.9058    1.0000 </r>
       <r>   -4.8656    1.0000 </r>
       <r>   -3.1713    0.0000 </r>
       <r>   -3.1505    0.0000 </r>
       <r>   -3.0384    0.0000 </r>
       <r>   -2.9124    0.0000 </r>
       <r>    1.3521    0.0000 </r>
       <r>    1.8268    0.0000 </r>
       <r>    2.3656    0.0000 </r>
       <r>    2.9142    0.0000 </r>
       <r>    2.9237    0.0000 </r>
       <r>    3.0853    0.0000 </r>
       <r>    3.3711    0.0000 </r>
       <r>    3.5928    0.0000 </r>
      </set>
      <set comment="kpoint 13">
       <r>  -19.6192    1.0000 </r>
       <r>  -19.3675    1.0000 </r>
       <r>  -19.0856    1.0000 </r>
       <r>  -18.9869    1.0000 </r>
       <r>  -18.9491    1.0000 </r>
       <r>  -18.9188    1.0000 </r>
       <r>   -9.5718    1.0000 </r>
       <r>   -9.0883    1.0000 </r>
       <r>   -8.8536    1.0000 </r>
       <r>   -8.7695    1.0000 </r>
       <r>   -8.6535    1.0000 </r>
       <r>   -8.5629    1.0000 </r>
       <r>   -8.4852    1.0000 </r>
       <r>   -8.1480    1.0000 </r>
       <r>   -7.9597    1.0000 </r>
       <r>   -7.6977    1.0000 </r>
       <r>   -7.4580    1.0000 </r>
       <r>   -7.2813    1.0000 </r>
       <r>   -6.9663    1.0000 </r>
       <r>   -6.8516    1.0000 </r>
       <r>   -6.5383    1.0000 </r>
       <r>   -6.4845    1.0000 </r>
       <r>   -6.2423    1.0000 </r>
       <r>   -6.1957    1.0000 </r>
       <r>   -5.5293    1.0000 </r>
       <r>   -5.2366    1.0000 </r>
       <r>   -5.2080    1.0000 </r>
       <r>   -4.9652    1.0000 </r>
       <r>   -4.9455    1.0000 </r>
       <r>   -4.7528    1.0000 </r>
       <r>   -3.2169    0.0000 </r>
       <r>   -3.1521    0.0000 </r>
       <r>   -3.0622    0.0000 </r>
       <r>   -2.9583    0.0000 </r>
       <r>    2.3775    0.0000 </r>
       <r>    2.5249    0.0000 </r>
       <r>    2.5302    0.0000 </r>
       <r>    2.7656    0.0000 </r>
       <r>    2.8836    0.0000 </r>
       <r>    3.1312    0.0000 </r>
       <r>    3.2711    0.0000 </r>
       <r>    3.3957    0.0000 </r>
      </set>
      <set comment="kpoint 14">
       <r>  -19.5549    1.0000 </r>
       <r>  -19.4123    1.0000 </r>
       <r>  -19.1175    1.0000 </r>
       <r>  -18.9739    1.0000 </r>
       <r>  -18.9461    1.0000 </r>
       <r>  -18.9288    1.0000 </r>
       <r>   -9.3749    1.0000 </r>
       <r>   -9.1662    1.0000 </r>
       <r>   -8.9103    1.0000 </r>
       <r>   -8.7814    1.0000 </r>
       <r>   -8.7277    1.0000 </r>
       <r>   -8.4760    1.0000 </r>
       <r>   -8.4667    1.0000 </r>
       <r>   -8.3904    1.0000 </r>
       <r>   -8.0856    1.0000 </r>
       <r>   -7.4509    1.0000 </r>
       <r>   -7.3348    1.0000 </r>
       <r>   -7.0504    1.0000 </r>
       <r>   -6.9438    1.0000 </r>
       <r>   -6.9215    1.0000 </r>
       <r>   -6.6977    1.0000 </r>
       <r>   -6.4706    1.0000 </r>
       <r>   -6.3719    1.0000 </r>
       <r>   -6.3007    1.0000 </r>
       <r>   -5.5035    1.0000 </r>
       <r>   -5.1388    1.0000 </r>
       <r>   -5.1292    1.0000 </r>
       <r>   -4.9717    1.0000 </r>
       <r>   -4.9126    1.0000 </r>
       <r>   -4.8528    1.0000 </r>
       <r>   -3.2236    0.0000 </r>
       <r>   -3.1329    0.0000 </r>
       <r>   -3.1178    0.0000 </r>
       <r>   -2.8747    0.0000 </r>
       <r>    2.4099    0.0000 </r>
       <r>    2.5075    0.0000 </r>
       <r>    2.6780    0.0000 </r>
       <r>    2.7465    0.0000 </r>
       <r>    3.0142    0.0000 </r>
       <r>    3.1357    0.0000 </r>
       <r>    3.2681    0.0000 </r>
       <r>    3.4557    0.0000 </r>
      </set>
      <set comment="kpoint 15">
       <r>  -19.5821    1.0000 </r>
       <r>  -19.3950    1.0000 </r>
       <r>  -19.1026    1.0000 </r>
       <r>  -18.9783    1.0000 </r>
       <r>  -18.9509    1.0000 </r>
       <r>  -18.9221    1.0000 </r>
       <r>   -9.4859    1.0000 </r>
       <r>   -9.1121    1.0000 </r>
       <r>   -8.8762    1.0000 </r>
       <r>   -8.7889    1.0000 </r>
       <r>   -8.6922    1.0000 </r>
       <r>   -8.5137    1.0000 </r>
       <r>   -8.4793    1.0000 </r>
       <r>   -8.2633    1.0000 </r>
       <r>   -8.0581    1.0000 </r>
       <r>   -7.4745    1.0000 </r>
       <r>   -7.4554    1.0000 </r>
       <r>   -7.1929    1.0000 </r>
       <r>   -6.9803    1.0000 </r>
       <r>   -6.8857    1.0000 </r>
       <r>   -6.5005    1.0000 </r>
       <r>   -6.4962    1.0000 </r>
       <r>   -6.3683    1.0000 </r>
       <r>   -6.2488    1.0000 </r>
       <r>   -5.5129    1.0000 </r>
       <r>   -5.1827    1.0000 </r>
       <r>   -5.1669    1.0000 </r>
       <r>   -4.9670    1.0000 </r>
       <r>   -4.9445    1.0000 </r>
       <r>   -4.7893    1.0000 </r>
       <r>   -3.2224    0.0000 </r>
       <r>   -3.1442    0.0000 </r>
       <r>   -3.0940    0.0000 </r>
       <r>   -2.9079    0.0000 </r>
       <r>    2.4798    0.0000 </r>
       <r>    2.4934    0.0000 </r>
       <r>    2.6847    0.0000 </r>
       <r>    2.7289    0.0000 </r>
       <r>    2.7927    0.0000 </r>
       <r>    3.1335    0.0000 </r>
       <r>    3.2615    0.0000 </r>
       <r>    3.5170    0.0000 </r>
      </set>
      <set comment="kpoint 16">
       <r>  -19.6599    1.0000 </r>
       <r>  -19.3304    1.0000 </r>
       <r>  -19.0758    1.0000 </r>
       <r>  -19.0028    1.0000 </r>
       <r>  -18.9375    1.0000 </r>
       <r>  -18.9158    1.0000 </r>
       <r>   -9.6042    1.0000 </r>
       <r>   -9.0979    1.0000 </r>
       <r>   -8.8428    1.0000 </r>
       <r>   -8.7585    1.0000 </r>
       <r>   -8.6241    1.0000 </r>
       <r>   -8.6038    1.0000 </r>
       <r>   -8.4842    1.0000 </r>
       <r>   -8.1286    1.0000 </r>
       <r>   -7.9382    1.0000 </r>
       <r>   -7.7692    1.0000 </r>
       <r>   -7.3668    1.0000 </r>
       <r>   -7.3184    1.0000 </r>
       <r>   -6.9645    1.0000 </r>
       <r>   -6.8578    1.0000 </r>
       <r>   -6.5624    1.0000 </r>
       <r>   -6.5240    1.0000 </r>
       <r>   -6.1937    1.0000 </r>
       <r>   -6.1461    1.0000 </r>
       <r>   -5.5339    1.0000 </r>
       <r>   -5.2547    1.0000 </r>
       <r>   -5.2248    1.0000 </r>
       <r>   -4.9756    1.0000 </r>
       <r>   -4.9387    1.0000 </r>
       <r>   -4.7453    1.0000 </r>
       <r>   -3.2093    0.0000 </r>
       <r>   -3.1559    0.0000 </r>
       <r>   -3.0370    0.0000 </r>
       <r>   -2.9893    0.0000 </r>
       <r>    2.1715    0.0000 </r>
       <r>    2.3681    0.0000 </r>
       <r>    2.5590    0.0000 </r>
       <r>    2.9341    0.0000 </r>
       <r>    3.0510    0.0000 </r>
       <r>    3.0668    0.0000 </r>
       <r>    3.1951    0.0000 </r>
       <r>    3.4483    0.0000 </r>
      </set>
      <set comment="kpoint 17">
       <r>  -19.7064    1.0000 </r>
       <r>  -19.2684    1.0000 </r>
       <r>  -19.0883    1.0000 </r>
       <r>  -19.0203    1.0000 </r>
       <r>  -18.9190    1.0000 </r>
       <r>  -18.9141    1.0000 </r>
       <r>   -9.5424    1.0000 </r>
       <r>   -9.1624    1.0000 </r>
       <r>   -8.8471    1.0000 </r>
       <r>   -8.7658    1.0000 </r>
       <r>   -8.7127    1.0000 </r>
       <r>   -8.5100    1.0000 </r>
       <r>   -8.4623    1.0000 </r>
       <r>   -8.3996    1.0000 </r>
       <r>   -7.8521    1.0000 </r>
       <r>   -7.7098    1.0000 </r>
       <r>   -7.3940    1.0000 </r>
       <r>   -7.0881    1.0000 </r>
       <r>   -6.9405    1.0000 </r>
       <r>   -6.7614    1.0000 </r>
       <r>   -6.5975    1.0000 </r>
       <r>   -6.5655    1.0000 </r>
       <r>   -6.4039    1.0000 </r>
       <r>   -6.1711    1.0000 </r>
       <r>   -5.4606    1.0000 </r>
       <r>   -5.2328    1.0000 </r>
       <r>   -5.2009    1.0000 </r>
       <r>   -4.9925    1.0000 </r>
       <r>   -4.8840    1.0000 </r>
       <r>   -4.8204    1.0000 </r>
       <r>   -3.1906    0.0000 </r>
       <r>   -3.1407    0.0000 </r>
       <r>   -3.1100    0.0000 </r>
       <r>   -2.9157    0.0000 </r>
       <r>    1.9041    0.0000 </r>
       <r>    2.1934    0.0000 </r>
       <r>    2.7053    0.0000 </r>
       <r>    2.8258    0.0000 </r>
       <r>    2.9905    0.0000 </r>
       <r>    3.2988    0.0000 </r>
       <r>    3.3905    0.0000 </r>
       <r>    3.5054    0.0000 </r>
      </set>
      <set comment="kpoint 18">
       <r>  -19.6893    1.0000 </r>
       <r>  -19.2940    1.0000 </r>
       <r>  -19.0803    1.0000 </r>
       <r>  -19.0130    1.0000 </r>
       <r>  -18.9276    1.0000 </r>
       <r>  -18.9144    1.0000 </r>
       <r>   -9.5827    1.0000 </r>
       <r>   -9.1224    1.0000 </r>
       <r>   -8.8403    1.0000 </r>
       <r>   -8.7646    1.0000 </r>
       <r>   -8.6757    1.0000 </r>
       <r>   -8.5616    1.0000 </r>
       <r>   -8.4744    1.0000 </r>
       <r>   -8.2693    1.0000 </r>
       <r>   -7.9226    1.0000 </r>
       <r>   -7.7105    1.0000 </r>
       <r>   -7.3830    1.0000 </r>
       <r>   -7.1261    1.0000 </r>
       <r>   -6.9891    1.0000 </r>
       <r>   -6.8727    1.0000 </r>
       <r>   -6.5812    1.0000 </r>
       <r>   -6.5361    1.0000 </r>
       <r>   -6.2660    1.0000 </r>
       <r>   -6.1548    1.0000 </r>
       <r>   -5.4974    1.0000 </r>
       <r>   -5.2441    1.0000 </r>
       <r>   -5.2191    1.0000 </r>
       <r>   -4.9831    1.0000 </r>
       <r>   -4.9210    1.0000 </r>
       <r>   -4.7724    1.0000 </r>
       <r>   -3.1953    0.0000 </r>
       <r>   -3.1557    0.0000 </r>
       <r>   -3.0731    0.0000 </r>
       <r>   -2.9507    0.0000 </r>
       <r>    2.0011    0.0000 </r>
       <r>    2.2550    0.0000 </r>
       <r>    2.6306    0.0000 </r>
       <r>    2.9066    0.0000 </r>
       <r>    3.0217    0.0000 </r>
       <r>    3.2794    0.0000 </r>
       <r>    3.3452    0.0000 </r>
       <r>    3.4094    0.0000 </r>
      </set>
      <set comment="kpoint 19">
       <r>  -19.6893    1.0000 </r>
       <r>  -19.2940    1.0000 </r>
       <r>  -19.0803    1.0000 </r>
       <r>  -19.0130    1.0000 </r>
       <r>  -18.9276    1.0000 </r>
       <r>  -18.9144    1.0000 </r>
       <r>   -9.5827    1.0000 </r>
       <r>   -9.1224    1.0000 </r>
       <r>   -8.8403    1.0000 </r>
       <r>   -8.7646    1.0000 </r>
       <r>   -8.6757    1.0000 </r>
       <r>   -8.5616    1.0000 </r>
       <r>   -8.4744    1.0000 </r>
       <r>   -8.2693    1.0000 </r>
       <r>   -7.9226    1.0000 </r>
       <r>   -7.7105    1.0000 </r>
       <r>   -7.3830    1.0000 </r>
       <r>   -7.1261    1.0000 </r>
       <r>   -6.9891    1.0000 </r>
       <r>   -6.8727    1.0000 </r>
       <r>   -6.5812    1.0000 </r>
       <r>   -6.5361    1.0000 </r>
       <r>   -6.2660    1.0000 </r>
       <r>   -6.1548    1.0000 </r>
       <r>   -5.4974    1.0000 </r>
       <r>   -5.2441    1.0000 </r>
       <r>   -5.2191    1.0000 </r>
       <r>   -4.9831    1.0000 </r>
       <r>   -4.9210    1.0000 </r>
       <r>   -4.7724    1.0000 </r>
       <r>   -3.1953    0.0000 </r>
       <r>   -3.1557    0.0000 </r>
       <r>   -3.0731    0.0000 </r>
       <r>   -2.9507    0.0000 </r>
       <r>    2.0006    0.0000 </r>
       <r>    2.2566    0.0000 </r>
       <r>    2.6307    0.0000 </r>
       <r>    2.9035    0.0000 </r>
       <r>    3.0206    0.0000 </r>
       <r>    3.2592    0.0000 </r>
       <r>    3.3447    0.0000 </r>
       <r>    3.3969    0.0000 </r>
      </set>
      <set comment="kpoint 20">
       <r>  -19.7064    1.0000 </r>
       <r>  -19.2684    1.0000 </r>
       <r>  -19.0883    1.0000 </r>
       <r>  -19.0203    1.0000 </r>
       <r>  -18.9190    1.0000 </r>
       <r>  -18.9141    1.0000 </r>
       <r>   -9.5424    1.0000 </r>
       <r>   -9.1624    1.0000 </r>
       <r>   -8.8471    1.0000 </r>
       <r>   -8.7658    1.0000 </r>
       <r>   -8.7127    1.0000 </r>
       <r>   -8.5100    1.0000 </r>
       <r>   -8.4623    1.0000 </r>
       <r>   -8.3996    1.0000 </r>
       <r>   -7.8521    1.0000 </r>
       <r>   -7.7098    1.0000 </r>
       <r>   -7.3940    1.0000 </r>
       <r>   -7.0881    1.0000 </r>
       <r>   -6.9405    1.0000 </r>
       <r>   -6.7614    1.0000 </r>
       <r>   -6.5975    1.0000 </r>
       <r>   -6.5656    1.0000 </r>
       <r>   -6.4039    1.0000 </r>
       <r>   -6.1711    1.0000 </r>
       <r>   -5.4606    1.0000 </r>
       <r>   -5.2328    1.0000 </r>
       <r>   -5.2009    1.0000 </r>
       <r>   -4.9925    1.0000 </r>
       <r>   -4.8840    1.0000 </r>
       <r>   -4.8204    1.0000 </r>
       <r>   -3.1906    0.0000 </r>
       <r>   -3.1407    0.0000 </r>
       <r>   -3.1100    0.0000 </r>
       <r>   -2.9157    0.0000 </r>
       <r>    1.9034    0.0000 </r>
       <r>    2.1957    0.0000 </r>
       <r>    2.7055    0.0000 </r>
       <r>    2.8223    0.0000 </r>
       <r>    2.9823    0.0000 </r>
       <r>    3.2557    0.0000 </r>
       <r>    3.4956    0.0000 </r>
       <r>    3.5509    0.0000 </r>
      </set>
      <set comment="kpoint 21">
       <r>  -19.6599    1.0000 </r>
       <r>  -19.3304    1.0000 </r>
       <r>  -19.0758    1.0000 </r>
       <r>  -19.0028    1.0000 </r>
       <r>  -18.9375    1.0000 </r>
       <r>  -18.9158    1.0000 </r>
       <r>   -9.6042    1.0000 </r>
       <r>   -9.0979    1.0000 </r>
       <r>   -8.8428    1.0000 </r>
       <r>   -8.7585    1.0000 </r>
       <r>   -8.6241    1.0000 </r>
       <r>   -8.6038    1.0000 </r>
       <r>   -8.4842    1.0000 </r>
       <r>   -8.1286    1.0000 </r>
       <r>   -7.9382    1.0000 </r>
       <r>   -7.7692    1.0000 </r>
       <r>   -7.3668    1.0000 </r>
       <r>   -7.3184    1.0000 </r>
       <r>   -6.9645    1.0000 </r>
       <r>   -6.8578    1.0000 </r>
       <r>   -6.5624    1.0000 </r>
       <r>   -6.5240    1.0000 </r>
       <r>   -6.1937    1.0000 </r>
       <r>   -6.1461    1.0000 </r>
       <r>   -5.5339    1.0000 </r>
       <r>   -5.2547    1.0000 </r>
       <r>   -5.2248    1.0000 </r>
       <r>   -4.9756    1.0000 </r>
       <r>   -4.9387    1.0000 </r>
       <r>   -4.7453    1.0000 </r>
       <r>   -3.2093    0.0000 </r>
       <r>   -3.1559    0.0000 </r>
       <r>   -3.0370    0.0000 </r>
       <r>   -2.9893    0.0000 </r>
       <r>    2.1715    0.0000 </r>
       <r>    2.3681    0.0000 </r>
       <r>    2.5590    0.0000 </r>
       <r>    2.9341    0.0000 </r>
       <r>    3.0510    0.0000 </r>
       <r>    3.0668    0.0000 </r>
       <r>    3.1951    0.0000 </r>
       <r>    3.4483    0.0000 </r>
      </set>
      <set comment="kpoint 22">
       <r>  -19.5821    1.0000 </r>
       <r>  -19.3950    1.0000 </r>
       <r>  -19.1026    1.0000 </r>
       <r>  -18.9783    1.0000 </r>
       <r>  -18.9509    1.0000 </r>
       <r>  -18.9221    1.0000 </r>
       <r>   -9.4859    1.0000 </r>
       <r>   -9.1121    1.0000 </r>
       <r>   -8.8762    1.0000 </r>
       <r>   -8.7889    1.0000 </r>
       <r>   -8.6922    1.0000 </r>
       <r>   -8.5137    1.0000 </r>
       <r>   -8.4793    1.0000 </r>
       <r>   -8.2633    1.0000 </r>
       <r>   -8.0581    1.0000 </r>
       <r>   -7.4745    1.0000 </r>
       <r>   -7.4554    1.0000 </r>
       <r>   -7.1929    1.0000 </r>
       <r>   -6.9803    1.0000 </r>
       <r>   -6.8857    1.0000 </r>
       <r>   -6.5005    1.0000 </r>
       <r>   -6.4962    1.0000 </r>
       <r>   -6.3683    1.0000 </r>
       <r>   -6.2488    1.0000 </r>
       <r>   -5.5129    1.0000 </r>
       <r>   -5.1827    1.0000 </r>
       <r>   -5.1669    1.0000 </r>
       <r>   -4.9670    1.0000 </r>
       <r>   -4.9445    1.0000 </r>
       <r>   -4.7893    1.0000 </r>
       <r>   -3.2224    0.0000 </r>
       <r>   -3.1442    0.0000 </r>
       <r>   -3.0940    0.0000 </r>
       <r>   -2.9079    0.0000 </r>
       <r>    2.4801    0.0000 </r>
       <r>    2.4946    0.0000 </r>
       <r>    2.6869    0.0000 </r>
       <r>    2.7257    0.0000 </r>
       <r>    2.7884    0.0000 </r>
       <r>    3.1315    0.0000 </r>
       <r>    3.2539    0.0000 </r>
       <r>    3.5944    0.0000 </r>
      </set>
      <set comment="kpoint 23">
       <r>  -19.5549    1.0000 </r>
       <r>  -19.4123    1.0000 </r>
       <r>  -19.1175    1.0000 </r>
       <r>  -18.9739    1.0000 </r>
       <r>  -18.9461    1.0000 </r>
       <r>  -18.9288    1.0000 </r>
       <r>   -9.3749    1.0000 </r>
       <r>   -9.1662    1.0000 </r>
       <r>   -8.9103    1.0000 </r>
       <r>   -8.7814    1.0000 </r>
       <r>   -8.7277    1.0000 </r>
       <r>   -8.4760    1.0000 </r>
       <r>   -8.4667    1.0000 </r>
       <r>   -8.3904    1.0000 </r>
       <r>   -8.0856    1.0000 </r>
       <r>   -7.4509    1.0000 </r>
       <r>   -7.3348    1.0000 </r>
       <r>   -7.0504    1.0000 </r>
       <r>   -6.9438    1.0000 </r>
       <r>   -6.9215    1.0000 </r>
       <r>   -6.6977    1.0000 </r>
       <r>   -6.4706    1.0000 </r>
       <r>   -6.3719    1.0000 </r>
       <r>   -6.3007    1.0000 </r>
       <r>   -5.5035    1.0000 </r>
       <r>   -5.1388    1.0000 </r>
       <r>   -5.1292    1.0000 </r>
       <r>   -4.9717    1.0000 </r>
       <r>   -4.9126    1.0000 </r>
       <r>   -4.8528    1.0000 </r>
       <r>   -3.2236    0.0000 </r>
       <r>   -3.1329    0.0000 </r>
       <r>   -3.1178    0.0000 </r>
       <r>   -2.8747    0.0000 </r>
       <r>    2.4109    0.0000 </r>
       <r>    2.5076    0.0000 </r>
       <r>    2.6754    0.0000 </r>
       <r>    2.7467    0.0000 </r>
       <r>    3.0130    0.0000 </r>
       <r>    3.1308    0.0000 </r>
       <r>    3.2633    0.0000 </r>
       <r>    3.5142    0.0000 </r>
      </set>
      <set comment="kpoint 24">
       <r>  -19.6192    1.0000 </r>
       <r>  -19.3675    1.0000 </r>
       <r>  -19.0856    1.0000 </r>
       <r>  -18.9869    1.0000 </r>
       <r>  -18.9491    1.0000 </r>
       <r>  -18.9188    1.0000 </r>
       <r>   -9.5718    1.0000 </r>
       <r>   -9.0884    1.0000 </r>
       <r>   -8.8536    1.0000 </r>
       <r>   -8.7695    1.0000 </r>
       <r>   -8.6535    1.0000 </r>
       <r>   -8.5629    1.0000 </r>
       <r>   -8.4852    1.0000 </r>
       <r>   -8.1480    1.0000 </r>
       <r>   -7.9597    1.0000 </r>
       <r>   -7.6977    1.0000 </r>
       <r>   -7.4580    1.0000 </r>
       <r>   -7.2813    1.0000 </r>
       <r>   -6.9663    1.0000 </r>
       <r>   -6.8516    1.0000 </r>
       <r>   -6.5383    1.0000 </r>
       <r>   -6.4845    1.0000 </r>
       <r>   -6.2423    1.0000 </r>
       <r>   -6.1957    1.0000 </r>
       <r>   -5.5293    1.0000 </r>
       <r>   -5.2366    1.0000 </r>
       <r>   -5.2080    1.0000 </r>
       <r>   -4.9652    1.0000 </r>
       <r>   -4.9455    1.0000 </r>
       <r>   -4.7528    1.0000 </r>
       <r>   -3.2169    0.0000 </r>
       <r>   -3.1521    0.0000 </r>
       <r>   -3.0622    0.0000 </r>
       <r>   -2.9583    0.0000 </r>
       <r>    2.3790    0.0000 </r>
       <r>    2.5240    0.0000 </r>
       <r>    2.5282    0.0000 </r>
       <r>    2.7677    0.0000 </r>
       <r>    2.8804    0.0000 </r>
       <r>    3.1278    0.0000 </r>
       <r>    3.2724    0.0000 </r>
       <r>    3.4236    0.0000 </r>
      </set>
      <set comment="kpoint 25">
       <r>  -19.8393    1.0000 </r>
       <r>  -19.1317    1.0000 </r>
       <r>  -19.0726    1.0000 </r>
       <r>  -19.0486    1.0000 </r>
       <r>  -18.8986    1.0000 </r>
       <r>  -18.8966    1.0000 </r>
       <r>   -9.6432    1.0000 </r>
       <r>   -9.1683    1.0000 </r>
       <r>   -8.8044    1.0000 </r>
       <r>   -8.7473    1.0000 </r>
       <r>   -8.7195    1.0000 </r>
       <r>   -8.5713    1.0000 </r>
       <r>   -8.4408    1.0000 </r>
       <r>   -8.3763    1.0000 </r>
       <r>   -8.2117    1.0000 </r>
       <r>   -7.5746    1.0000 </r>
       <r>   -7.2587    1.0000 </r>
       <r>   -7.2495    1.0000 </r>
       <r>   -6.8852    1.0000 </r>
       <r>   -6.6196    1.0000 </r>
       <r>   -6.5931    1.0000 </r>
       <r>   -6.5077    1.0000 </r>
       <r>   -6.2750    1.0000 </r>
       <r>   -6.1836    1.0000 </r>
       <r>   -5.4649    1.0000 </r>
       <r>   -5.2504    1.0000 </r>
       <r>   -5.2209    1.0000 </r>
       <r>   -5.0245    1.0000 </r>
       <r>   -4.9058    1.0000 </r>
       <r>   -4.8656    1.0000 </r>
       <r>   -3.1713    0.0000 </r>
       <r>   -3.1505    0.0000 </r>
       <r>   -3.0384    0.0000 </r>
       <r>   -2.9124    0.0000 </r>
       <r>    1.3521    0.0000 </r>
       <r>    1.8273    0.0000 </r>
       <r>    2.3643    0.0000 </r>
       <r>    2.9050    0.0000 </r>
       <r>    2.9241    0.0000 </r>
       <r>    3.1118    0.0000 </r>
       <r>    3.3506    0.0000 </r>
       <r>    3.5904    0.0000 </r>
      </set>
      <set comment="kpoint 26">
       <r>  -19.8159    1.0000 </r>
       <r>  -19.1605    1.0000 </r>
       <r>  -19.0680    1.0000 </r>
       <r>  -19.0462    1.0000 </r>
       <r>  -18.9014    1.0000 </r>
       <r>  -18.9012    1.0000 </r>
       <r>   -9.6387    1.0000 </r>
       <r>   -9.1599    1.0000 </r>
       <r>   -8.7985    1.0000 </r>
       <r>   -8.7455    1.0000 </r>
       <r>   -8.7320    1.0000 </r>
       <r>   -8.5420    1.0000 </r>
       <r>   -8.4828    1.0000 </r>
       <r>   -8.3053    1.0000 </r>
       <r>   -8.2206    1.0000 </r>
       <r>   -7.5853    1.0000 </r>
       <r>   -7.2164    1.0000 </r>
       <r>   -7.1906    1.0000 </r>
       <r>   -6.9053    1.0000 </r>
       <r>   -6.7668    1.0000 </r>
       <r>   -6.6120    1.0000 </r>
       <r>   -6.5455    1.0000 </r>
       <r>   -6.2219    1.0000 </r>
       <r>   -6.1611    1.0000 </r>
       <r>   -5.4683    1.0000 </r>
       <r>   -5.2655    1.0000 </r>
       <r>   -5.2177    1.0000 </r>
       <r>   -5.0152    1.0000 </r>
       <r>   -4.9179    1.0000 </r>
       <r>   -4.8291    1.0000 </r>
       <r>   -3.1679    0.0000 </r>
       <r>   -3.1535    0.0000 </r>
       <r>   -3.0496    0.0000 </r>
       <r>   -2.9301    0.0000 </r>
       <r>    1.4577    0.0000 </r>
       <r>    1.8927    0.0000 </r>
       <r>    2.4443    0.0000 </r>
       <r>    2.8647    0.0000 </r>
       <r>    3.0069    0.0000 </r>
       <r>    3.2062    0.0000 </r>
       <r>    3.4587    0.0000 </r>
       <r>    3.5652    0.0000 </r>
      </set>
      <set comment="kpoint 27">
       <r>  -19.7064    1.0000 </r>
       <r>  -19.2684    1.0000 </r>
       <r>  -19.0882    1.0000 </r>
       <r>  -19.0203    1.0000 </r>
       <r>  -18.9190    1.0000 </r>
       <r>  -18.9141    1.0000 </r>
       <r>   -9.5423    1.0000 </r>
       <r>   -9.1625    1.0000 </r>
       <r>   -8.8471    1.0000 </r>
       <r>   -8.7657    1.0000 </r>
       <r>   -8.7127    1.0000 </r>
       <r>   -8.5100    1.0000 </r>
       <r>   -8.4623    1.0000 </r>
       <r>   -8.3996    1.0000 </r>
       <r>   -7.8521    1.0000 </r>
       <r>   -7.7098    1.0000 </r>
       <r>   -7.3941    1.0000 </r>
       <r>   -7.0881    1.0000 </r>
       <r>   -6.9406    1.0000 </r>
       <r>   -6.7612    1.0000 </r>
       <r>   -6.5975    1.0000 </r>
       <r>   -6.5654    1.0000 </r>
       <r>   -6.4040    1.0000 </r>
       <r>   -6.1711    1.0000 </r>
       <r>   -5.4606    1.0000 </r>
       <r>   -5.2329    1.0000 </r>
       <r>   -5.2009    1.0000 </r>
       <r>   -4.9925    1.0000 </r>
       <r>   -4.8839    1.0000 </r>
       <r>   -4.8203    1.0000 </r>
       <r>   -3.1906    0.0000 </r>
       <r>   -3.1407    0.0000 </r>
       <r>   -3.1100    0.0000 </r>
       <r>   -2.9157    0.0000 </r>
       <r>    1.9040    0.0000 </r>
       <r>    2.1933    0.0000 </r>
       <r>    2.7052    0.0000 </r>
       <r>    2.8257    0.0000 </r>
       <r>    2.9905    0.0000 </r>
       <r>    3.2988    0.0000 </r>
       <r>    3.3905    0.0000 </r>
       <r>    3.5053    0.0000 </r>
      </set>
      <set comment="kpoint 28">
       <r>  -19.5550    1.0000 </r>
       <r>  -19.4124    1.0000 </r>
       <r>  -19.1175    1.0000 </r>
       <r>  -18.9739    1.0000 </r>
       <r>  -18.9460    1.0000 </r>
       <r>  -18.9287    1.0000 </r>
       <r>   -9.3748    1.0000 </r>
       <r>   -9.1663    1.0000 </r>
[...]
       <r>    -1.7069     0.0000    34.0000 </r>
       <r>    -1.6187     0.0000    34.0000 </r>
       <r>    -1.5305     0.0000    34.0000 </r>
       <r>    -1.4422     0.0000    34.0000 </r>
       <r>    -1.3540     0.0000    34.0000 </r>
       <r>    -1.2658     0.0000    34.0000 </r>
       <r>    -1.1775     0.0000    34.0000 </r>
       <r>    -1.0893     0.0000    34.0000 </r>
       <r>    -1.0011     0.0000    34.0000 </r>
       <r>    -0.9129     0.0000    34.0000 </r>
       <r>    -0.8246     0.0000    34.0000 </r>
       <r>    -0.7364     0.0000    34.0000 </r>
       <r>    -0.6482     0.0000    34.0000 </r>
       <r>    -0.5599     0.0000    34.0000 </r>
       <r>    -0.4717     0.0000    34.0000 </r>
       <r>    -0.3835     0.0000    34.0000 </r>
       <r>    -0.2952     0.0000    34.0000 </r>
       <r>    -0.2070     0.0000    34.0000 </r>
       <r>    -0.1188     0.0000    34.0000 </r>
       <r>    -0.0305     0.0000    34.0000 </r>
       <r>     0.0577     0.0000    34.0000 </r>
       <r>     0.1459     0.0000    34.0000 </r>
       <r>     0.2341     0.0000    34.0000 </r>
       <r>     0.3224     0.0000    34.0000 </r>
       <r>     0.4106     0.0000    34.0000 </r>
       <r>     0.4988     0.0000    34.0000 </r>
       <r>     0.5871     0.0000    34.0000 </r>
       <r>     0.6753     0.0000    34.0000 </r>
       <r>     0.7635     0.0000    34.0000 </r>
       <r>     0.8518     0.0000    34.0000 </r>
       <r>     0.9400     0.0237    34.0021 </r>
       <r>     1.0282     0.4584    34.0425 </r>
       <r>     1.1164     0.3884    34.0768 </r>
       <r>     1.2047     0.3801    34.1103 </r>
       <r>     1.2929     0.0657    34.1161 </r>
       <r>     1.3811     0.9453    34.1995 </r>
       <r>     1.4694     0.6472    34.2566 </r>
       <r>     1.5576     0.2873    34.2820 </r>
       <r>     1.6458     1.1103    34.3800 </r>
       <r>     1.7341     1.3067    34.4952 </r>
       <r>     1.8223     0.7391    34.5605 </r>
       <r>     1.9105     1.7551    34.7153 </r>
       <r>     1.9988     1.7107    34.8662 </r>
       <r>     2.0870     1.5413    35.0022 </r>
       <r>     2.1752     1.3975    35.1255 </r>
       <r>     2.2634     2.8256    35.3748 </r>
       <r>     2.3517     1.5873    35.5149 </r>
       <r>     2.4399     3.8514    35.8547 </r>
       <r>     2.5281     4.7742    36.2759 </r>
       <r>     2.6164     4.1202    36.6395 </r>
       <r>     2.7046     4.6402    37.0489 </r>
       <r>     2.7928     6.0276    37.5807 </r>
       <r>     2.8811     4.7798    38.0024 </r>
       <r>     2.9693     5.5442    38.4916 </r>
       <r>     3.0575     5.4292    38.9706 </r>
       <r>     3.1458     5.2487    39.4337 </r>
       <r>     3.2340     5.1143    39.8849 </r>
       <r>     3.3222     6.5567    40.4634 </r>
       <r>     3.4104     5.2001    40.9222 </r>
       <r>     3.4987     4.4453    41.3145 </r>
       <r>     3.5869     4.3590    41.6991 </r>
       <r>     3.6751     2.0447    41.8795 </r>
       <r>     3.7634     0.1078    41.8890 </r>
       <r>     3.8516     0.1840    41.9052 </r>
       <r>     3.9398     0.6709    41.9644 </r>
       <r>     4.0281     0.1430    41.9770 </r>
       <r>     4.1163     0.2415    41.9983 </r>
       <r>     4.2045     0.0189    42.0000 </r>
       <r>     4.2928     0.0000    42.0000 </r>
       <r>     4.3810     0.0000    42.0000 </r>
       <r>     4.4692     0.0000    42.0000 </r>
       <r>     4.5574     0.0000    42.0000 </r>
       <r>     4.6457     0.0000    42.0000 </r>
       <r>     4.7339     0.0000    42.0000 </r>
       <r>     4.8221     0.0000    42.0000 </r>
       <r>     4.9104     0.0000    42.0000 </r>
       <r>     4.9986     0.0000    42.0000 </r>
       <r>     5.0868     0.0000    42.0000 </r>
       <r>     5.1751     0.0000    42.0000 </r>
       <r>     5.2633     0.0000    42.0000 </r>
       <r>     5.3515     0.0000    42.0000 </r>
      </set>
      <set comment="spin 2">
       <r>   -21.1177     0.0000     0.0000 </r>
       <r>   -21.0294     0.0000     0.0000 </r>
       <r>   -20.9412     0.0000     0.0000 </r>
       <r>   -20.8530     0.0000     0.0000 </r>
       <r>   -20.7647     0.0000     0.0000 </r>
       <r>   -20.6765     0.0000     0.0000 </r>
       <r>   -20.5883     0.0000     0.0000 </r>
       <r>   -20.5001     0.0000     0.0000 </r>
       <r>   -20.4118     0.0000     0.0000 </r>
       <r>   -20.3236     0.0000     0.0000 </r>
       <r>   -20.2354     0.0000     0.0000 </r>
       <r>   -20.1471     0.0000     0.0000 </r>
       <r>   -20.0589     0.0000     0.0000 </r>
       <r>   -19.9707     0.0260     0.0023 </r>
       <r>   -19.8824     0.8808     0.0800 </r>
       <r>   -19.7942     2.1612     0.2707 </r>
       <r>   -19.7060     2.3921     0.4818 </r>
       <r>   -19.6177     3.2496     0.7685 </r>
       <r>   -19.5295     2.3352     0.9745 </r>
       <r>   -19.4413     0.8506     1.0495 </r>
       <r>   -19.3531     3.0485     1.3185 </r>
       <r>   -19.2648     3.0447     1.5872 </r>
       <r>   -19.1766     2.8371     1.8375 </r>
       <r>   -19.0884    11.6270     2.8633 </r>
       <r>   -19.0001    12.6689     3.9811 </r>
       <r>   -18.9119    17.7901     5.5507 </r>
       <r>   -18.8237     5.0648     5.9976 </r>
       <r>   -18.7354     0.0270     6.0000 </r>
       <r>   -18.6472     0.0000     6.0000 </r>
       <r>   -18.5590     0.0000     6.0000 </r>
       <r>   -18.4707     0.0000     6.0000 </r>
       <r>   -18.3825     0.0000     6.0000 </r>
       <r>   -18.2943     0.0000     6.0000 </r>
       <r>   -18.2061     0.0000     6.0000 </r>
       <r>   -18.1178     0.0000     6.0000 </r>
       <r>   -18.0296     0.0000     6.0000 </r>
       <r>   -17.9414     0.0000     6.0000 </r>
       <r>   -17.8531     0.0000     6.0000 </r>
       <r>   -17.7649     0.0000     6.0000 </r>
       <r>   -17.6767     0.0000     6.0000 </r>
       <r>   -17.5884     0.0000     6.0000 </r>
       <r>   -17.5002     0.0000     6.0000 </r>
       <r>   -17.4120     0.0000     6.0000 </r>
       <r>   -17.3237     0.0000     6.0000 </r>
       <r>   -17.2355     0.0000     6.0000 </r>
       <r>   -17.1473     0.0000     6.0000 </r>
       <r>   -17.0591     0.0000     6.0000 </r>
       <r>   -16.9708     0.0000     6.0000 </r>
       <r>   -16.8826     0.0000     6.0000 </r>
       <r>   -16.7944     0.0000     6.0000 </r>
       <r>   -16.7061     0.0000     6.0000 </r>
       <r>   -16.6179     0.0000     6.0000 </r>
       <r>   -16.5297     0.0000     6.0000 </r>
       <r>   -16.4414     0.0000     6.0000 </r>
       <r>   -16.3532     0.0000     6.0000 </r>
       <r>   -16.2650     0.0000     6.0000 </r>
       <r>   -16.1768     0.0000     6.0000 </r>
       <r>   -16.0885     0.0000     6.0000 </r>
       <r>   -16.0003     0.0000     6.0000 </r>
       <r>   -15.9121     0.0000     6.0000 </r>
       <r>   -15.8238     0.0000     6.0000 </r>
       <r>   -15.7356     0.0000     6.0000 </r>
       <r>   -15.6474     0.0000     6.0000 </r>
       <r>   -15.5591     0.0000     6.0000 </r>
       <r>   -15.4709     0.0000     6.0000 </r>
       <r>   -15.3827     0.0000     6.0000 </r>
       <r>   -15.2944     0.0000     6.0000 </r>
       <r>   -15.2062     0.0000     6.0000 </r>
       <r>   -15.1180     0.0000     6.0000 </r>
       <r>   -15.0298     0.0000     6.0000 </r>
       <r>   -14.9415     0.0000     6.0000 </r>
       <r>   -14.8533     0.0000     6.0000 </r>
       <r>   -14.7651     0.0000     6.0000 </r>
       <r>   -14.6768     0.0000     6.0000 </r>
       <r>   -14.5886     0.0000     6.0000 </r>
       <r>   -14.5004     0.0000     6.0000 </r>
       <r>   -14.4121     0.0000     6.0000 </r>
       <r>   -14.3239     0.0000     6.0000 </r>
       <r>   -14.2357     0.0000     6.0000 </r>
       <r>   -14.1474     0.0000     6.0000 </r>
       <r>   -14.0592     0.0000     6.0000 </r>
       <r>   -13.9710     0.0000     6.0000 </r>
       <r>   -13.8828     0.0000     6.0000 </r>
       <r>   -13.7945     0.0000     6.0000 </r>
       <r>   -13.7063     0.0000     6.0000 </r>
       <r>   -13.6181     0.0000     6.0000 </r>
       <r>   -13.5298     0.0000     6.0000 </r>
       <r>   -13.4416     0.0000     6.0000 </r>
       <r>   -13.3534     0.0000     6.0000 </r>
       <r>   -13.2651     0.0000     6.0000 </r>
       <r>   -13.1769     0.0000     6.0000 </r>
       <r>   -13.0887     0.0000     6.0000 </r>
       <r>   -13.0004     0.0000     6.0000 </r>
       <r>   -12.9122     0.0000     6.0000 </r>
       <r>   -12.8240     0.0000     6.0000 </r>
       <r>   -12.7358     0.0000     6.0000 </r>
       <r>   -12.6475     0.0000     6.0000 </r>
       <r>   -12.5593     0.0000     6.0000 </r>
       <r>   -12.4711     0.0000     6.0000 </r>
       <r>   -12.3828     0.0000     6.0000 </r>
       <r>   -12.2946     0.0000     6.0000 </r>
       <r>   -12.2064     0.0000     6.0000 </r>
       <r>   -12.1181     0.0000     6.0000 </r>
       <r>   -12.0299     0.0000     6.0000 </r>
       <r>   -11.9417     0.0000     6.0000 </r>
       <r>   -11.8535     0.0000     6.0000 </r>
       <r>   -11.7652     0.0000     6.0000 </r>
       <r>   -11.6770     0.0000     6.0000 </r>
       <r>   -11.5888     0.0000     6.0000 </r>
       <r>   -11.5005     0.0000     6.0000 </r>
       <r>   -11.4123     0.0000     6.0000 </r>
       <r>   -11.3241     0.0000     6.0000 </r>
       <r>   -11.2358     0.0000     6.0000 </r>
       <r>   -11.1476     0.0000     6.0000 </r>
       <r>   -11.0594     0.0000     6.0000 </r>
       <r>   -10.9711     0.0000     6.0000 </r>
       <r>   -10.8829     0.0000     6.0000 </r>
       <r>   -10.7947     0.0000     6.0000 </r>
       <r>   -10.7065     0.0000     6.0000 </r>
       <r>   -10.6182     0.0000     6.0000 </r>
       <r>   -10.5300     0.0000     6.0000 </r>
       <r>   -10.4418     0.0000     6.0000 </r>
       <r>   -10.3535     0.0000     6.0000 </r>
       <r>   -10.2653     0.0000     6.0000 </r>
       <r>   -10.1771     0.0000     6.0000 </r>
       <r>   -10.0888     0.0000     6.0000 </r>
       <r>   -10.0006     0.0000     6.0000 </r>
       <r>    -9.9124     0.0000     6.0000 </r>
       <r>    -9.8241     0.0000     6.0000 </r>
       <r>    -9.7359     0.0000     6.0000 </r>
       <r>    -9.6477     0.0000     6.0000 </r>
       <r>    -9.5595     0.0004     6.0000 </r>
       <r>    -9.4712     0.2985     6.0264 </r>
       <r>    -9.3830     3.3510     6.3220 </r>
       <r>    -9.2948     4.5118     6.7201 </r>
       <r>    -9.2065     1.6749     6.8679 </r>
       <r>    -9.1183     1.2129     6.9749 </r>
       <r>    -9.0301     0.2893     7.0004 </r>
       <r>    -8.9418     1.5473     7.1369 </r>
       <r>    -8.8536     7.7419     7.8200 </r>
       <r>    -8.7654     2.0277     7.9989 </r>
       <r>    -8.6771     1.4176     8.1240 </r>
       <r>    -8.5889     9.7727     8.9863 </r>
       <r>    -8.5007    10.4699     9.9100 </r>
       <r>    -8.4125     6.5827    10.4908 </r>
       <r>    -8.3242     6.9156    11.1010 </r>
       <r>    -8.2360     6.7275    11.6945 </r>
       <r>    -8.1478     9.8052    12.5597 </r>
       <r>    -8.0595     4.6026    12.9658 </r>
       <r>    -7.9713     4.2657    13.3421 </r>
       <r>    -7.8831     7.4212    13.9969 </r>
       <r>    -7.7948     4.3491    14.3806 </r>
       <r>    -7.7066     1.9900    14.5562 </r>
       <r>    -7.6184     2.6955    14.7940 </r>
       <r>    -7.5302     2.3322    14.9998 </r>
       <r>    -7.4419     2.3783    15.2096 </r>
       <r>    -7.3537     2.4877    15.4291 </r>
       <r>    -7.2655     3.0255    15.6961 </r>
       <r>    -7.1772     5.9173    16.2181 </r>
       <r>    -7.0890     5.1872    16.6758 </r>
       <r>    -7.0008     3.6080    16.9941 </r>
       <r>    -6.9125     5.4784    17.4775 </r>
       <r>    -6.8243     7.3322    18.1244 </r>
       <r>    -6.7361     4.5773    18.5283 </r>
       <r>    -6.6478     7.3503    19.1768 </r>
       <r>    -6.5596     7.3213    19.8228 </r>
       <r>    -6.4714     7.3872    20.4745 </r>
       <r>    -6.3832     4.6762    20.8871 </r>
       <r>    -6.2949     6.9932    21.5041 </r>
       <r>    -6.2067     5.9780    22.0316 </r>
       <r>    -6.1185    12.6141    23.1445 </r>
       <r>    -6.0302     8.8264    23.9233 </r>
       <r>    -5.9420     0.8650    23.9996 </r>
       <r>    -5.8538     0.0043    24.0000 </r>
       <r>    -5.7655     0.0000    24.0000 </r>
       <r>    -5.6773     0.0000    24.0000 </r>
       <r>    -5.5891     0.0000    24.0000 </r>
       <r>    -5.5008     0.0000    24.0000 </r>
       <r>    -5.4126     0.0000    24.0000 </r>
       <r>    -5.3244     0.0000    24.0000 </r>
       <r>    -5.2362     0.0000    24.0000 </r>
       <r>    -5.1479     0.0000    24.0000 </r>
       <r>    -5.0597     0.0000    24.0000 </r>
       <r>    -4.9715     0.0000    24.0000 </r>
       <r>    -4.8832     0.0000    24.0000 </r>
       <r>    -4.7950     0.0000    24.0000 </r>
       <r>    -4.7068     0.0000    24.0000 </r>
       <r>    -4.6185     0.0000    24.0000 </r>
       <r>    -4.5303     0.0000    24.0000 </r>
       <r>    -4.4421     0.0000    24.0000 </r>
       <r>    -4.3538     0.0000    24.0000 </r>
       <r>    -4.2656     0.0000    24.0000 </r>
       <r>    -4.1774     0.0000    24.0000 </r>
       <r>    -4.0892     0.0000    24.0000 </r>
       <r>    -4.0009     0.0000    24.0000 </r>
       <r>    -3.9127     0.0000    24.0000 </r>
       <r>    -3.8245     0.0000    24.0000 </r>
       <r>    -3.7362     0.0000    24.0000 </r>
       <r>    -3.6480     0.0000    24.0000 </r>
       <r>    -3.5598     0.0000    24.0000 </r>
       <r>    -3.4715     0.0000    24.0000 </r>
       <r>    -3.3833     0.0000    24.0000 </r>
       <r>    -3.2951     0.0000    24.0000 </r>
       <r>    -3.2069     0.0000    24.0000 </r>
       <r>    -3.1186     0.0000    24.0000 </r>
       <r>    -3.0304     0.0000    24.0000 </r>
       <r>    -2.9422     0.0000    24.0000 </r>
       <r>    -2.8539     0.0000    24.0000 </r>
       <r>    -2.7657     0.0000    24.0000 </r>
       <r>    -2.6775     0.0252    24.0022 </r>
       <r>    -2.5892     4.0613    24.3606 </r>
       <r>    -2.5010    13.0907    25.5156 </r>
       <r>    -2.4128     5.9033    26.0364 </r>
       <r>    -2.3245    10.0850    26.9262 </r>
       <r>    -2.2363     8.4577    27.6724 </r>
       <r>    -2.1481    11.6837    28.7033 </r>
       <r>    -2.0599    13.5339    29.8974 </r>
       <r>    -1.9716     1.1618    29.9999 </r>
       <r>    -1.8834     0.0010    30.0000 </r>
       <r>    -1.7952     0.0064    30.0006 </r>
       <r>    -1.7069     1.4387    30.1275 </r>
       <r>    -1.6187    10.7411    31.0752 </r>
       <r>    -1.5305    20.8641    32.9161 </r>
       <r>    -1.4422    10.8486    33.8732 </r>
       <r>    -1.3540     1.4325    33.9996 </r>
       <r>    -1.2658     0.0043    34.0000 </r>
       <r>    -1.1775     0.0000    34.0000 </r>
       <r>    -1.0893     0.0000    34.0000 </r>
       <r>    -1.0011     0.0000    34.0000 </r>
       <r>    -0.9129     0.0000    34.0000 </r>
       <r>    -0.8246     0.0000    34.0000 </r>
       <r>    -0.7364     0.0000    34.0000 </r>
       <r>    -0.6482     0.0000    34.0000 </r>
       <r>    -0.5599     0.0000    34.0000 </r>
       <r>    -0.4717     0.0000    34.0000 </r>
       <r>    -0.3835     0.0000    34.0000 </r>
       <r>    -0.2952     0.0000    34.0000 </r>
       <r>    -0.2070     0.0000    34.0000 </r>
       <r>    -0.1188     0.0000    34.0000 </r>
       <r>    -0.0305     0.0000    34.0000 </r>
       <r>     0.0577     0.0000    34.0000 </r>
       <r>     0.1459     0.0000    34.0000 </r>
       <r>     0.2341     0.0000    34.0000 </r>
       <r>     0.3224     0.0000    34.0000 </r>
       <r>     0.4106     0.0000    34.0000 </r>
       <r>     0.4988     0.0000    34.0000 </r>
       <r>     0.5871     0.0000    34.0000 </r>
       <r>     0.6753     0.0000    34.0000 </r>
       <r>     0.7635     0.0000    34.0000 </r>
       <r>     0.8518     0.0000    34.0000 </r>
       <r>     0.9400     0.0000    34.0000 </r>
       <r>     1.0282     0.0006    34.0001 </r>
       <r>     1.1164     0.1685    34.0149 </r>
       <r>     1.2047     0.4987    34.0589 </r>
       <r>     1.2929     0.5139    34.1043 </r>
       <r>     1.3811     0.0925    34.1124 </r>
       <r>     1.4694     0.7340    34.1772 </r>
       <r>     1.5576     0.8145    34.2490 </r>
       <r>     1.6458     0.7402    34.3144 </r>
       <r>     1.7341     1.1979    34.4200 </r>
       <r>     1.8223     1.1789    34.5241 </r>
       <r>     1.9105     1.2288    34.6325 </r>
       <r>     1.9988     1.3498    34.7516 </r>
       <r>     2.0870     2.1767    34.9436 </r>
       <r>     2.1752     0.9614    35.0285 </r>
       <r>     2.2634     2.5449    35.2530 </r>
       <r>     2.3517     2.1305    35.4410 </r>
       <r>     2.4399     1.9403    35.6122 </r>
       <r>     2.5281     3.1633    35.8913 </r>
       <r>     2.6164     2.7793    36.1365 </r>
       <r>     2.7046     2.1481    36.3260 </r>
       <r>     2.7928     3.2657    36.6141 </r>
       <r>     2.8811     4.6915    37.0281 </r>
       <r>     2.9693     5.2130    37.4880 </r>
       <r>     3.0575     4.8438    37.9154 </r>
       <r>     3.1458     5.2083    38.3749 </r>
       <r>     3.2340     4.3957    38.7628 </r>
       <r>     3.3222     3.2631    39.0507 </r>
       <r>     3.4104     4.7400    39.4689 </r>
       <r>     3.4987     7.0240    40.0886 </r>
       <r>     3.5869     6.2623    40.6411 </r>
       <r>     3.6751     4.9906    41.0815 </r>
       <r>     3.7634     5.4868    41.5656 </r>
       <r>     3.8516     3.4286    41.8681 </r>
       <r>     3.9398     0.5808    41.9193 </r>
       <r>     4.0281     0.2716    41.9433 </r>
       <r>     4.1163     0.1479    41.9563 </r>
       <r>     4.2045     0.4657    41.9974 </r>
       <r>     4.2928     0.0293    42.0000 </r>
       <r>     4.3810     0.0000    42.0000 </r>
       <r>     4.4692     0.0000    42.0000 </r>
       <r>     4.5574     0.0000    42.0000 </r>
       <r>     4.6457     0.0000    42.0000 </r>
       <r>     4.7339     0.0000    42.0000 </r>
       <r>     4.8221     0.0000    42.0000 </r>
       <r>     4.9104     0.0000    42.0000 </r>
       <r>     4.9986     0.0000    42.0000 </r>
       <r>     5.0868     0.0000    42.0000 </r>
       <r>     5.1751     0.0000    42.0000 </r>
       <r>     5.2633     0.0000    42.0000 </r>
       <r>     5.3515     0.0000    42.0000 </r>
      </set>
     </set>
    </array>
   </total>
  </dos>
 </calculation>
 <structure name="finalpos" >
  <crystal>
   <varray name="basis" >
    <v>       6.15408800      -0.00274500       0.00061100 </v>
    <v>      -3.07942100       5.32782100       0.00067500 </v>
    <v>       0.00231000       0.00427900      22.81863100 </v>
   </varray>
   <i name="volume">    747.98159913 </i>
   <varray name="rec_basis" >
    <v>       0.16253552       0.09394372      -0.00003407 </v>
    <v>       0.00008375       0.18774240      -0.00003521 </v>
    <v>      -0.00000435      -0.00000807       0.04382384 </v>
   </varray>
  </crystal>
  <varray name="positions" >
   <v>       0.66667703       0.33331061       0.50000070 </v>
   <v>       0.99998926       0.00002187       0.50000053 </v>
   <v>       0.33311315       0.02907181       0.55799819 </v>
   <v>       0.97139074       0.30473277       0.55784902 </v>
   <v>       0.69575945       0.66644706       0.55800373 </v>
   <v>       0.69527690       0.02859586       0.44215010 </v>
   <v>       0.33355667       0.30426630       0.44200082 </v>
   <v>       0.97090416       0.66688184       0.44199540 </v>
  </varray>
 </structure>
</modeling>
