<?xml version="1.0" encoding="ISO-8859-1"?>
<modeling>
 <generator>
  <i name="program" type="string">vasp </i>
  <i name="version" type="string">6.5.1  </i>
  <i name="subversion" type="string">10Mar25 (build Apr 08 2025 20:07:02) complex                          parallel </i>
  <i name="platform" type="string">LinuxIFC </i>
  <i name="date" type="string">2025 06 10 </i>
  <i name="time" type="string">22:16:35 </i>
 </generator>
 <incar>
  <i type="string" name="SYSTEM">CrCl3 Convergência</i>
  <i type="string" name="PREC">Accurate</i>
  <i type="int" name="ISPIN">     2</i>
  <i type="int" name="IBRION">    -1</i>
  <i name="EDIFF">      0.00000100</i>
  <i type="int" name="NSW">     0</i>
  <i name="ENCUT">    300.00000000</i>
  <v name="MAGMOM">      3.00000000      3.00000000      0.60000000      0.60000000      0.60000000      0.60000000      0.60000000      0.60000000</v>
  <i type="int" name="ISMEAR">     0</i>
  <i name="SIGMA">      0.05000000</i>
  <i type="logical" name="LWAVE"> F  </i>
  <i type="logical" name="LCHARG"> F  </i>
 </incar>
 <primitive_cell>
  <structure name="primitive_cell" >
   <crystal>
    <varray name="basis" >
     <v>       6.15408800      -0.00274500       0.00061100 </v>
     <v>      -3.07942100       5.32782100       0.00067500 </v>
     <v>       0.00231000       0.00427900      22.81863100 </v>
    </varray>
    <i name="volume">    747.98159913 </i>
    <varray name="rec_basis" >
     <v>       0.16253552       0.09394372      -0.00003407 </v>
     <v>       0.00008375       0.18774240      -0.00003521 </v>
     <v>      -0.00000435      -0.00000807       0.04382384 </v>
    </varray>
   </crystal>
   <varray name="positions" >
    <v>       0.66673659       0.33327152       0.50000103 </v>
    <v>       0.99993200       0.00005715       0.49999678 </v>
    <v>       0.33303677       0.02431524       0.55991412 </v>
    <v>       0.97615759       0.30949873       0.55971000 </v>
    <v>       0.69101020       0.66638828       0.55992133 </v>
    <v>       0.69052433       0.02381943       0.44029028 </v>
    <v>       0.33361264       0.30901660       0.44008514 </v>
    <v>       0.97565723       0.66696118       0.44007979 </v>
   </varray>
  </structure>
  <varray name="primitive_index" >
   <v type="int" >        1 </v>
   <v type="int" >        2 </v>
   <v type="int" >        3 </v>
   <v type="int" >        4 </v>
   <v type="int" >        5 </v>
   <v type="int" >        6 </v>
   <v type="int" >        7 </v>
   <v type="int" >        8 </v>
  </varray>
 </primitive_cell>
 <kpoints>
  <generation param="Monkhorst-Pack">
   <v type="int" name="divisions">       6        6        4 </v>
   <v name="usershift">      0.00000000       0.00000000       0.00000000 </v>
   <v name="genvec1">      0.16666667      -0.00000000       0.00000000 </v>
   <v name="genvec2">      0.00000000       0.16666667       0.00000000 </v>
   <v name="genvec3">      0.00000000      -0.00000000       0.25000000 </v>
   <v name="shift">      0.50000000       0.50000000       0.50000000 </v>
  </generation>
  <varray name="kpointlist" >
   <v>       0.08333333       0.08333333       0.12500000 </v>
   <v>       0.25000000       0.08333333       0.12500000 </v>
   <v>       0.41666667       0.08333333       0.12500000 </v>
   <v>      -0.41666667       0.08333333       0.12500000 </v>
   <v>      -0.25000000       0.08333333       0.12500000 </v>
   <v>      -0.08333333       0.08333333       0.12500000 </v>
   <v>       0.08333333       0.25000000       0.12500000 </v>
   <v>       0.25000000       0.25000000       0.12500000 </v>
   <v>       0.41666667       0.25000000       0.12500000 </v>
   <v>      -0.41666667       0.25000000       0.12500000 </v>
   <v>      -0.25000000       0.25000000       0.12500000 </v>
   <v>      -0.08333333       0.25000000       0.12500000 </v>
   <v>       0.08333333       0.41666667       0.12500000 </v>
   <v>       0.25000000       0.41666667       0.12500000 </v>
   <v>       0.41666667       0.41666667       0.12500000 </v>
   <v>      -0.41666667       0.41666667       0.12500000 </v>
   <v>      -0.25000000       0.41666667       0.12500000 </v>
   <v>      -0.08333333       0.41666667       0.12500000 </v>
   <v>       0.08333333      -0.41666667       0.12500000 </v>
   <v>       0.25000000      -0.41666667       0.12500000 </v>
   <v>       0.41666667      -0.41666667       0.12500000 </v>
   <v>      -0.41666667      -0.41666667       0.12500000 </v>
   <v>      -0.25000000      -0.41666667       0.12500000 </v>
   <v>      -0.08333333      -0.41666667       0.12500000 </v>
   <v>       0.08333333      -0.25000000       0.12500000 </v>
   <v>       0.25000000      -0.25000000       0.12500000 </v>
   <v>       0.41666667      -0.25000000       0.12500000 </v>
   <v>      -0.41666667      -0.25000000       0.12500000 </v>
   <v>      -0.25000000      -0.25000000       0.12500000 </v>
   <v>      -0.08333333      -0.25000000       0.12500000 </v>
   <v>       0.08333333      -0.08333333       0.12500000 </v>
   <v>       0.25000000      -0.08333333       0.12500000 </v>
   <v>       0.41666667      -0.08333333       0.12500000 </v>
   <v>      -0.41666667      -0.08333333       0.12500000 </v>
   <v>      -0.25000000      -0.08333333       0.12500000 </v>
   <v>      -0.08333333      -0.08333333       0.12500000 </v>
   <v>       0.08333333       0.08333333       0.37500000 </v>
   <v>       0.25000000       0.08333333       0.37500000 </v>
   <v>       0.41666667       0.08333333       0.37500000 </v>
   <v>      -0.41666667       0.08333333       0.37500000 </v>
   <v>      -0.25000000       0.08333333       0.37500000 </v>
   <v>      -0.08333333       0.08333333       0.37500000 </v>
   <v>       0.08333333       0.25000000       0.37500000 </v>
   <v>       0.25000000       0.25000000       0.37500000 </v>
   <v>       0.41666667       0.25000000       0.37500000 </v>
   <v>      -0.41666667       0.25000000       0.37500000 </v>
   <v>      -0.25000000       0.25000000       0.37500000 </v>
   <v>      -0.08333333       0.25000000       0.37500000 </v>
   <v>       0.08333333       0.41666667       0.37500000 </v>
   <v>       0.25000000       0.41666667       0.37500000 </v>
   <v>       0.41666667       0.41666667       0.37500000 </v>
   <v>      -0.41666667       0.41666667       0.37500000 </v>
   <v>      -0.25000000       0.41666667       0.37500000 </v>
   <v>      -0.08333333       0.41666667       0.37500000 </v>
   <v>       0.08333333      -0.41666667       0.37500000 </v>
   <v>       0.25000000      -0.41666667       0.37500000 </v>
   <v>       0.41666667      -0.41666667       0.37500000 </v>
   <v>      -0.41666667      -0.41666667       0.37500000 </v>
   <v>      -0.25000000      -0.41666667       0.37500000 </v>
   <v>      -0.08333333      -0.41666667       0.37500000 </v>
   <v>       0.08333333      -0.25000000       0.37500000 </v>
   <v>       0.25000000      -0.25000000       0.37500000 </v>
   <v>       0.41666667      -0.25000000       0.37500000 </v>
   <v>      -0.41666667      -0.25000000       0.37500000 </v>
   <v>      -0.25000000      -0.25000000       0.37500000 </v>
   <v>      -0.08333333      -0.25000000       0.37500000 </v>
   <v>       0.08333333      -0.08333333       0.37500000 </v>
   <v>       0.25000000      -0.08333333       0.37500000 </v>
   <v>       0.41666667      -0.08333333       0.37500000 </v>
   <v>      -0.41666667      -0.08333333       0.37500000 </v>
   <v>      -0.25000000      -0.08333333       0.37500000 </v>
   <v>      -0.08333333      -0.08333333       0.37500000 </v>
  </varray>
  <varray name="weights" >
   <v>       0.01388889 </v>
   <v>       0.01388889 </v>
   <v>       0.01388889 </v>
   <v>       0.01388889 </v>
   <v>       0.01388889 </v>
   <v>       0.01388889 </v>
   <v>       0.01388889 </v>
   <v>       0.01388889 </v>
   <v>       0.01388889 </v>
   <v>       0.01388889 </v>
   <v>       0.01388889 </v>
   <v>       0.01388889 </v>
   <v>       0.01388889 </v>
   <v>       0.01388889 </v>
   <v>       0.01388889 </v>
   <v>       0.01388889 </v>
   <v>       0.01388889 </v>
   <v>       0.01388889 </v>
   <v>       0.01388889 </v>
   <v>       0.01388889 </v>
   <v>       0.01388889 </v>
   <v>       0.01388889 </v>
   <v>       0.01388889 </v>
   <v>       0.01388889 </v>
   <v>       0.01388889 </v>
   <v>       0.01388889 </v>
   <v>       0.01388889 </v>
   <v>       0.01388889 </v>
   <v>       0.01388889 </v>
   <v>       0.01388889 </v>
   <v>       0.01388889 </v>
   <v>       0.01388889 </v>
   <v>       0.01388889 </v>
   <v>       0.01388889 </v>
   <v>       0.01388889 </v>
   <v>       0.01388889 </v>
   <v>       0.01388889 </v>
   <v>       0.01388889 </v>
   <v>       0.01388889 </v>
   <v>       0.01388889 </v>
   <v>       0.01388889 </v>
   <v>       0.01388889 </v>
   <v>       0.01388889 </v>
   <v>       0.01388889 </v>
   <v>       0.01388889 </v>
   <v>       0.01388889 </v>
   <v>       0.01388889 </v>
   <v>       0.01388889 </v>
   <v>       0.01388889 </v>
   <v>       0.01388889 </v>
   <v>       0.01388889 </v>
   <v>       0.01388889 </v>
   <v>       0.01388889 </v>
   <v>       0.01388889 </v>
   <v>       0.01388889 </v>
   <v>       0.01388889 </v>
   <v>       0.01388889 </v>
   <v>       0.01388889 </v>
   <v>       0.01388889 </v>
   <v>       0.01388889 </v>
   <v>       0.01388889 </v>
   <v>       0.01388889 </v>
   <v>       0.01388889 </v>
   <v>       0.01388889 </v>
   <v>       0.01388889 </v>
   <v>       0.01388889 </v>
   <v>       0.01388889 </v>
   <v>       0.01388889 </v>
   <v>       0.01388889 </v>
   <v>       0.01388889 </v>
   <v>       0.01388889 </v>
   <v>       0.01388889 </v>
  </varray>
 </kpoints>
 <parameters>
  <separator name="general" >
   <i type="string" name="SYSTEM">CrCl3 Convergência</i>
   <i type="logical" name="LCOMPAT"> F  </i>
  </separator>
  <separator name="electronic" >
   <i type="string" name="PREC">accura</i>
   <i name="ENMAX">    300.00000000</i>
   <i name="ENAUG">    402.10800000</i>
   <i name="EDIFF">      0.00000100</i>
   <i type="int" name="IALGO">    38</i>
   <i type="int" name="IWAVPR">    10</i>
   <i type="int" name="NBANDS">    42</i>
   <i type="int" name="NBANDSLOW">    -1</i>
   <i type="int" name="NBANDSHIGH">    -1</i>
   <i name="NELECT">     54.00000000</i>
   <i type="int" name="TURBO">     0</i>
   <i type="int" name="IRESTART">     0</i>
   <i type="int" name="NREBOOT">     0</i>
   <i type="int" name="NMIN">     0</i>
   <i name="EREF">      0.00000000</i>
   <separator name="electronic smearing" >
    <i type="int" name="ISMEAR">     0</i>
    <i name="SIGMA">      0.05000000</i>
    <i name="KSPACING">      0.50000000</i>
    <i type="logical" name="KGAMMA"> T  </i>
    <i type="logical" name="KBLOWUP"> T  </i>
   </separator>
   <separator name="electronic projectors" >
    <i type="logical" name="LREAL"> F  </i>
    <v name="ROPT">      0.00000000      0.00000000</v>
    <i type="int" name="LMAXPAW">  -100</i>
    <i type="int" name="LMAXMIX">     2</i>
    <i type="logical" name="NLSPLINE"> F  </i>
   </separator>
   <separator name="electronic startup" >
    <i type="int" name="ISTART">     0</i>
    <i type="int" name="ICHARG">     2</i>
    <i type="int" name="INIWAV">     1</i>
   </separator>
   <separator name="electronic spin" >
    <i type="int" name="ISPIN">     2</i>
    <i type="logical" name="LNONCOLLINEAR"> F  </i>
    <v name="MAGMOM">      3.00000000      3.00000000      0.60000000      0.60000000      0.60000000      0.60000000      0.60000000      0.60000000</v>
    <i name="NUPDOWN">     -1.00000000</i>
    <i type="logical" name="LSORBIT"> F  </i>
    <v name="SAXIS">      0.00000000      0.00000000      1.00000000</v>
    <i type="logical" name="LSPIRAL"> F  </i>
    <v name="QSPIRAL">      0.00000000      0.00000000      0.00000000</v>
    <i type="logical" name="LZEROZ"> F  </i>
   </separator>
   <separator name="electronic exchange-correlation" >
    <i type="logical" name="LASPH"> F  </i>
   </separator>
   <separator name="electronic convergence" >
    <i type="int" name="NELM">    60</i>
    <i type="int" name="NELMDL">    -5</i>
    <i type="int" name="NELMIN">     2</i>
    <i name="ENINI">    300.00000000</i>
    <separator name="electronic convergence detail" >
     <i type="logical" name="LDIAG"> T  </i>
     <i type="logical" name="LSUBROT"> F  </i>
     <i type="logical" name="LROBUST"> F  </i>
     <i type="int" name="ISEARCH">     0</i>
     <i name="WEIMIN">      0.00000000</i>
     <i name="EBREAK">      0.00000001</i>
     <i name="DEPER">      0.30000000</i>
     <i type="int" name="NRMM">     4</i>
     <i name="TIME">      0.40000000</i>
    </separator>
   </separator>
   <separator name="electronic mixer" >
    <i name="AMIX">      0.40000000</i>
    <i name="BMIX">      1.00000000</i>
    <i name="AMIN">      0.10000000</i>
    <i name="AMIX_MAG">      1.60000000</i>
    <i name="BMIX_MAG">      1.00000000</i>
    <separator name="electronic mixer details" >
     <i type="int" name="IMIX">     4</i>
     <i type="logical" name="MIXFIRST"> F  </i>
     <i type="int" name="MAXMIX">   -45</i>
     <i name="WC">    100.00000000</i>
     <i type="int" name="INIMIX">     1</i>
     <i type="int" name="MIXPRE">     1</i>
     <i type="int" name="MREMOVE">     5</i>
    </separator>
   </separator>
   <separator name="electronic dipolcorrection" >
    <i type="logical" name="LDIPOL"> F  </i>
    <i type="logical" name="LMONO"> F  </i>
    <i type="int" name="IDIPOL">     0</i>
    <i name="EPSILON">      1.00000000</i>
    <v name="DIPOL">   -100.00000000   -100.00000000   -100.00000000</v>
    <i name="EFIELD">      0.00000000</i>
    <i type="logical" name="LVACPOTAV"> F  </i>
   </separator>
  </separator>
  <separator name="grids" >
   <i type="int" name="NGX">    36</i>
   <i type="int" name="NGY">    36</i>
   <i type="int" name="NGZ">   140</i>
   <i type="int" name="NGXF">    72</i>
   <i type="int" name="NGYF">    72</i>
   <i type="int" name="NGZF">   280</i>
   <i type="logical" name="ADDGRID"> F  </i>
  </separator>
  <separator name="ionic" >
   <i type="int" name="NSW">     0</i>
   <i type="int" name="IBRION">    -1</i>
   <i type="int" name="MDALGO">     0</i>
   <i type="int" name="ISIF">     2</i>
   <i name="PSTRESS">      0.00000000</i>
   <i name="EDIFFG">      0.00001000</i>
   <i type="int" name="NFREE">     0</i>
   <i name="POTIM">      0.50000000</i>
   <i name="SMASS">     -3.00000000</i>
   <i name="SCALEE">      1.00000000</i>
  </separator>
  <separator name="ionic md" >
   <i name="TEBEG">      0.00010000</i>
   <i name="TEEND">      0.00010000</i>
   <i type="int" name="NBLOCK">     1</i>
   <i type="int" name="KBLOCK">     1</i>
   <i type="int" name="NPACO">   256</i>
   <i name="APACO">     10.00000000</i>
  </separator>
  <separator name="symmetry" >
   <i type="int" name="ISYM">     2</i>
   <i name="SYMPREC">      0.00001000</i>
  </separator>
  <separator name="dos" >
   <i type="int" name="LORBIT">     0</i>
   <v name="RWIGS">     -1.00000000     -1.00000000</v>
   <i type="int" name="NEDOS">   301</i>
   <i name="EMIN">     10.00000000</i>
   <i name="EMAX">    -10.00000000</i>
   <i name="EFERMI">      0.00000000</i>
  </separator>
  <separator name="writing" >
   <i type="int" name="NWRITE">     2</i>
   <i type="logical" name="LWAVE"> F  </i>
   <i type="logical" name="LDOWNSAMPLE"> F  </i>
   <i type="logical" name="LCHARG"> F  </i>
   <i type="logical" name="LPARD"> F  </i>
   <i type="logical" name="LVTOT"> F  </i>
   <i type="logical" name="LVHAR"> F  </i>
   <i type="logical" name="LELF"> F  </i>
   <i type="logical" name="LOPTICS"> F  </i>
   <v name="STM">      0.00000000      0.00000000      0.00000000      0.00000000      0.00000000      0.00000000      0.00000000</v>
  </separator>
  <separator name="performance" >
   <i type="int" name="NPAR">    42</i>
   <i type="int" name="NSIM">     4</i>
   <i type="int" name="NBLK">    -1</i>
   <i type="logical" name="LPLANE"> T  </i>
   <i type="logical" name="LSCALAPACK"> T  </i>
   <i type="logical" name="LSCAAWARE"> F  </i>
   <i type="logical" name="LSCALU"> F  </i>
   <i type="logical" name="LASYNC"> F  </i>
   <i type="logical" name="LORBITALREAL"> F  </i>
  </separator>
  <separator name="miscellaneous" >
   <i type="int" name="IDIOT">     3</i>
   <i type="int" name="PHON_NSTRUCT">    -1</i>
   <i type="logical" name="LMUSIC"> F  </i>
   <v name="POMASS">     51.99600000     35.45300000</v>
   <v name="DARWINR">      0.00000000      0.00000000</v>
   <v name="DARWINV">      1.00000000      1.00000000</v>
   <i type="logical" name="LCORR"> T  </i>
  </separator>
  <i type="logical" name="GGA_COMPAT"> T  </i>
  <i type="logical" name="LBERRY"> F  </i>
  <i type="int" name="ICORELEVEL">     0</i>
  <i type="logical" name="LDAU"> F  </i>
  <i type="int" name="I_CONSTRAINED_M">     0</i>
  <separator name="electronic exchange-correlation" >
   <i type="string" name="GGA    ">PE</i>
   <i type="string" name="XC_C">1</i>
   <i type="int" name="VOSKOWN">     0</i>
   <i type="logical" name="LHFCALC"> F  </i>
   <i type="string" name="PRECFOCK"></i>
   <i type="logical" name="LSYMGRAD"> F  </i>
   <i type="logical" name="LHFONE"> F  </i>
   <i type="logical" name="LRHFCALC"> F  </i>
   <i type="logical" name="LTHOMAS"> F  </i>
   <i type="logical" name="LMODELHF"> F  </i>
   <i type="logical" name="LFOCKACE"> F  </i>
   <i name="ENCUT4O">     -1.00000000</i>
   <i type="int" name="EXXOEP">     0</i>
   <i type="int" name="FOURORBIT">     0</i>
   <i name="AEXX">      0.00000000</i>
   <i name="HFALPHA">      0.00000000</i>
   <i name="MCALPHA">      0.00000000</i>
   <i name="ALDAX">      1.00000000</i>
   <i name="AGGAX">      1.00000000</i>
   <i name="AMGGAX">      1.00000000</i>
   <i name="ALDAC">      1.00000000</i>
   <i name="AGGAC">      1.00000000</i>
   <i name="AMGGAC">      1.00000000</i>
   <i type="int" name="NKREDX">     1</i>
   <i type="int" name="NKREDY">     1</i>
   <i type="int" name="NKREDZ">     1</i>
   <i type="logical" name="SHIFTRED"> F  </i>
   <i type="logical" name="ODDONLY"> F  </i>
   <i type="logical" name="EVENONLY"> F  </i>
   <i type="int" name="LMAXFOCK">     0</i>
   <i type="int" name="NMAXFOCKAE">     0</i>
   <i type="logical" name="LFOCKAEDFT"> F  </i>
   <i name="HFSCREEN">      0.00000000</i>
   <i name="HFSCREENC">      0.00000000</i>
   <i type="int" name="NBANDSGWLOW">     0</i>
  </separator>
  <separator name="vdW DFT" >
   <i type="logical" name="LUSE_VDW"> F  </i>
   <i type="int" name="IVDW_NL">    -1</i>
   <i type="logical" name="LSPIN_VDW"> F  </i>
   <i name="ZAB_VDW">     -0.84910000</i>
   <i name="GAMMA_VDW">      1.39626340</i>
   <i name="ALPHA_VDW">      0.00000000</i>
   <i name="PARAM1">      0.12340000</i>
   <i name="PARAM2">      1.00000000</i>
   <i name="BPARAM">      6.30000000</i>
   <i name="CPARAM">      0.00930000</i>
  </separator>
  <separator name="model GW" >
   <i type="int" name="MODEL_GW">     0</i>
   <i name="MODEL_EPS0">     56.09861994</i>
   <i name="MODEL_ALPHA">      1.00000000</i>
  </separator>
  <separator name="linear response parameters" >
   <i type="logical" name="LEPSILON"> F  </i>
   <i type="logical" name="LRPA"> F  </i>
   <i type="logical" name="LNABLA"> F  </i>
   <i type="logical" name="LVEL"> F  </i>
   <i name="CSHIFT">      0.10000000</i>
   <i name="OMEGAMAX">     -1.00000000</i>
   <i name="DEG_THRESHOLD">      0.00200000</i>
   <i name="RTIME">     -0.10000000</i>
   <i name="WPLASMAI">      0.00000000</i>
   <v name="DFIELD">      0.00000000      0.00000000      0.00000000</v>
   <v name="WPLASMA">      0.00000000      0.00000000      0.00000000      0.00000000      0.00000000      0.00000000      0.00000000      0.00000000      0.00000000</v>
  </separator>
  <separator name="orbital magnetization" >
   <i type="logical" name="NUCIND"> F  </i>
   <v name="MAGPOS">      0.00000000      0.00000000      0.00000000</v>
   <i type="logical" name="LNICSALL"> T  </i>
   <i type="logical" name="ORBITALMAG"> F  </i>
   <i type="logical" name="LMAGBLOCH"> F  </i>
   <i type="logical" name="LCHIMAG"> F  </i>
   <i type="logical" name="LGAUGE"> T  </i>
   <i type="int" name="MAGATOM">     0</i>
   <v name="MAGDIPOL">      0.00000000      0.00000000      0.00000000</v>
   <v name="AVECCONST">      0.00000000      0.00000000      0.00000000</v>
  </separator>
  <separator name="response functions" >
   <i type="logical" name="LALL_IN_ONE"> F  </i>
   <i type="int" name="IALL_IN_ONE">    -1</i>
   <i type="int" name="NBANDS_WAVE">    -1</i>
   <i type="logical" name="LFINITE_TEMPERATURE"> F  </i>
   <i type="logical" name="LADDER"> F  </i>
   <i type="logical" name="LRPAFORCE"> F  </i>
   <i type="logical" name="LFXC"> F  </i>
   <i type="logical" name="LHARTREE"> T  </i>
   <i type="int" name="IBSE">     2</i>
   <v type="int" name="KPOINT">    -1     0     0     0</v>
   <i type="logical" name="LTCTC"> F  </i>
   <i type="logical" name="LTCTE"> F  </i>
   <i type="logical" name="LTETE"> F  </i>
   <i type="logical" name="LTRIPLET"> F  </i>
   <i type="logical" name="LFXCEPS"> F  </i>
   <i type="logical" name="LFXHEG"> F  </i>
   <i type="int" name="NATURALO">     2</i>
   <i type="logical" name="LHOLEGF"> F  </i>
   <i type="logical" name="L2ORDER"> F  </i>
   <i type="logical" name="LDMP1"> F  </i>
   <i type="logical" name="LMP2LT"> F  </i>
   <i type="logical" name="LSMP2LT"> F  </i>
   <i type="logical" name="LGWLF"> F  </i>
   <i name="ENCUTGW">     -1.60000002</i>
   <i name="ENCUTGWSOFT">     -1.60000002</i>
   <i name="ENCUTLF">     -1.00000000</i>
   <i type="logical" name="ESF_SPLINES"> F  </i>
   <i name="ESF_CONV">      0.01000000</i>
   <i type="int" name="ESF_NINTER">    15</i>
   <i type="int" name="LMAXMP2">    -1</i>
   <i name="SCISSOR">      0.00000000</i>
   <i type="int" name="NOMEGA">     0</i>
   <i type="int" name="NOMEGAR">     0</i>
   <i type="int" name="NBANDSGW">    -1</i>
   <i type="int" name="NBANDSO">    -1</i>
   <i type="int" name="NBANDSV">    -1</i>
   <i type="int" name="NELMGW">     1</i>
   <i type="int" name="NELMHF">     1</i>
   <i type="int" name="DIM">     3</i>
   <i type="int" name="IESPILON">     4</i>
   <i type="int" name="ANTIRES">     0</i>
   <i name="OMEGAMAX">    -30.00000000</i>
   <i name="OMEGAMIN">    -30.00000000</i>
   <i name="OMEGATL">   -200.00000000</i>
   <i type="int" name="OMEGAGRID">     0</i>
   <i name="CSHIFT">     -0.10000000</i>
   <i type="logical" name="LSELFENERGY"> F  </i>
   <i type="logical" name="LSPECTRAL"> F  </i>
   <i type="logical" name="LSPECTRALGW"> F  </i>
   <i type="logical" name="LSINGLES"> F  </i>
   <i type="logical" name="LFERMIGW"> F  </i>
   <i type="logical" name="ODDONLYGW"> F  </i>
   <i type="logical" name="EVENONLYGW"> F  </i>
   <i type="int" name="NKREDLFX">     1</i>
   <i type="int" name="NKREDLFY">     1</i>
   <i type="int" name="NKREDLFZ">     1</i>
   <i type="int" name="MAXMEM">  2800</i>
   <i type="int" name="TELESCOPE">     0</i>
   <i type="int" name="NTAUPAR">    -1</i>
   <i type="int" name="NOMEGAPAR">    -1</i>
   <i name="DAMP_NEWTON">      0.80000001</i>
   <i name="LAMBDA">      1.00000000</i>
  </separator>
  <separator name="External order field" >
   <i name="OFIELD_KAPPA">      0.00000000</i>
   <v name="OFIELD_K">      0.00000000      0.00000000      0.00000000</v>
   <i name="OFIELD_Q6_NEAR">      0.00000000</i>
   <i name="OFIELD_Q6_FAR">      0.00000000</i>
   <i name="OFIELD_A">      0.00000000</i>
  </separator>
  <separator name="optional k-points parameters" >
   <i type="int" name="KPOINTS_OPT_MODE">     1</i>
   <i type="logical" name="LKPOINTS_OPT"> F  </i>
  </separator>
 </parameters>
 <atominfo>
  <atoms>       8 </atoms>
  <types>       2 </types>
  <array name="atoms" >
   <dimension dim="1">ion</dimension>
   <field type="string">element</field>
   <field type="int">atomtype</field>
   <set>
    <rc><c>Cr</c><c>   1</c></rc>
    <rc><c>Cr</c><c>   1</c></rc>
    <rc><c>Cl</c><c>   2</c></rc>
    <rc><c>Cl</c><c>   2</c></rc>
    <rc><c>Cl</c><c>   2</c></rc>
    <rc><c>Cl</c><c>   2</c></rc>
    <rc><c>Cl</c><c>   2</c></rc>
    <rc><c>Cl</c><c>   2</c></rc>
   </set>
  </array>
  <array name="atomtypes" >
   <dimension dim="1">type</dimension>
   <field type="int">atomspertype</field>
   <field type="string">element</field>
   <field>mass</field>
   <field>valence</field>
   <field type="string">pseudopotential</field>
   <set>
    <rc><c>   2</c><c>Cr</c><c>     51.99600000</c><c>      6.00000000</c><c>  PAW_PBE Cr 06Sep2000                  </c></rc>
    <rc><c>   6</c><c>Cl</c><c>     35.45300000</c><c>      7.00000000</c><c>  PAW_PBE Cl 06Sep2000                  </c></rc>
   </set>
  </array>
 </atominfo>
 <structure name="initialpos" >
  <crystal>
   <varray name="basis" >
    <v>       6.15408800      -0.00274500       0.00061100 </v>
    <v>      -3.07942100       5.32782100       0.00067500 </v>
    <v>       0.00231000       0.00427900      22.81863100 </v>
   </varray>
   <i name="volume">    747.98159913 </i>
   <varray name="rec_basis" >
    <v>       0.16253552       0.09394372      -0.00003407 </v>
    <v>       0.00008375       0.18774240      -0.00003521 </v>
    <v>      -0.00000435      -0.00000807       0.04382384 </v>
   </varray>
  </crystal>
  <varray name="positions" >
   <v>       0.66673659       0.33327152       0.50000103 </v>
   <v>       0.99993200       0.00005715       0.49999678 </v>
   <v>       0.33303677       0.02431524       0.55991412 </v>
   <v>       0.97615759       0.30949873       0.55971000 </v>
   <v>       0.69101020       0.66638828       0.55992133 </v>
   <v>       0.69052433       0.02381943       0.44029028 </v>
   <v>       0.33361264       0.30901660       0.44008514 </v>
   <v>       0.97565723       0.66696118       0.44007979 </v>
  </varray>
 </structure>
 <calculation>
  <scstep>
   <time name="dav">  160.27  952.45</time>
   <time name="total">  162.08  963.36</time>
   <energy>
    <i name="alphaZ">     23.01523305 </i>
    <i name="ewald">   7534.95570762 </i>
    <i name="hartreedc"> -10194.69169658 </i>
    <i name="XCdc">     82.16019327 </i>
    <i name="pawpsdc">   2504.62862977 </i>
    <i name="pawaedc">  -2465.96035111 </i>
    <i name="eentropy">     -0.01251392 </i>
    <i name="bandstr">   -125.34854964 </i>
    <i name="atom">   3012.01190558 </i>
    <i name="e_fr_energy">    370.75855804 </i>
    <i name="e_wo_entrp">    370.77107196 </i>
    <i name="e_0_energy">    370.76481500 </i>
   </energy>
  </scstep>
  <scstep>
   <time name="dav">  249.77 1498.43</time>
   <time name="total">  250.25 1501.33</time>
   <energy>
    <i name="e_fr_energy">    -12.88656888 </i>
    <i name="e_wo_entrp">    -12.88652476 </i>
    <i name="e_0_energy">    -12.88654682 </i>
   </energy>
  </scstep>
  <scstep>
   <time name="dav">  163.04  978.14</time>
   <time name="total">  163.22  979.26</time>
   <energy>
    <i name="e_fr_energy">    -42.33384287 </i>
    <i name="e_wo_entrp">    -42.33384287 </i>
    <i name="e_0_energy">    -42.33384287 </i>
   </energy>
  </scstep>
  <scstep>
   <time name="dav">  277.37 1664.04</time>
   <time name="total">  277.57 1665.23</time>
   <energy>
    <i name="e_fr_energy">    -42.95620882 </i>
    <i name="e_wo_entrp">    -42.95620882 </i>
    <i name="e_0_energy">    -42.95620882 </i>
   </energy>
  </scstep>
  <scstep>
   <time name="dav">  234.38 1406.19</time>
   <time name="total">  237.66 1425.82</time>
   <energy>
    <i name="e_fr_energy">    -42.95655521 </i>
    <i name="e_wo_entrp">    -42.95655521 </i>
    <i name="e_0_energy">    -42.95655521 </i>
   </energy>
  </scstep>
  <scstep>
   <time name="dav">  240.58 1443.05</time>
   <time name="total">  245.10 1470.27</time>
   <energy>
    <i name="e_fr_energy">    -36.57747444 </i>
    <i name="e_wo_entrp">    -36.57747444 </i>
    <i name="e_0_energy">    -36.57747444 </i>
   </energy>
  </scstep>
  <scstep>
   <time name="dav">  212.16 1272.62</time>
   <time name="total">  216.82 1300.54</time>
   <energy>
    <i name="e_fr_energy">    -34.32129098 </i>
    <i name="e_wo_entrp">    -34.32129098 </i>
    <i name="e_0_energy">    -34.32129098 </i>
   </energy>
  </scstep>
  <scstep>
   <time name="dav">  229.96 1273.95</time>
   <time name="total">  234.59 1298.38</time>
   <energy>
    <i name="e_fr_energy">    -34.29041694 </i>
    <i name="e_wo_entrp">    -34.29041694 </i>
    <i name="e_0_energy">    -34.29041694 </i>
   </energy>
  </scstep>
  <scstep>
   <time name="dav">  228.14 1140.69</time>
   <time name="total">  232.87 1164.34</time>
   <energy>
    <i name="e_fr_energy">    -35.97334706 </i>
    <i name="e_wo_entrp">    -35.97334706 </i>
    <i name="e_0_energy">    -35.97334706 </i>
   </energy>
  </scstep>
  <scstep>
   <time name="dav">  232.89 1164.39</time>
   <time name="total">  237.57 1187.78</time>
   <energy>
    <i name="e_fr_energy">    -36.60644108 </i>
    <i name="e_wo_entrp">    -36.60644108 </i>
    <i name="e_0_energy">    -36.60644108 </i>
   </energy>
  </scstep>
  <scstep>
   <time name="dav">  236.75 1183.74</time>
   <time name="total">  241.16 1205.81</time>
   <energy>
    <i name="e_fr_energy">    -37.45159841 </i>
    <i name="e_wo_entrp">    -37.45159841 </i>
    <i name="e_0_energy">    -37.45159841 </i>
   </energy>
  </scstep>
  <scstep>
   <time name="dav">  189.38  946.88</time>
   <time name="total">  194.09  970.44</time>
   <energy>
    <i name="e_fr_energy">    -38.14255765 </i>
    <i name="e_wo_entrp">    -38.14255765 </i>
    <i name="e_0_energy">    -38.14255765 </i>
   </energy>
  </scstep>
  <scstep>
   <time name="dav">  228.89 1144.50</time>
   <time name="total">  233.49 1167.46</time>
   <energy>
    <i name="e_fr_energy">    -38.45700025 </i>
    <i name="e_wo_entrp">    -38.45700025 </i>
    <i name="e_0_energy">    -38.45700025 </i>
   </energy>
  </scstep>
  <scstep>
   <time name="dav">  200.88 1004.32</time>
   <time name="total">  205.66 1028.22</time>
   <energy>
    <i name="e_fr_energy">    -38.65540757 </i>
    <i name="e_wo_entrp">    -38.65540757 </i>
    <i name="e_0_energy">    -38.65540757 </i>
   </energy>
  </scstep>
  <scstep>
   <time name="dav">  229.70 1148.38</time>
   <time name="total">  234.49 1172.32</time>
   <energy>
    <i name="e_fr_energy">    -38.75213123 </i>
    <i name="e_wo_entrp">    -38.75213123 </i>
    <i name="e_0_energy">    -38.75213123 </i>
   </energy>
  </scstep>
  <scstep>
   <time name="dav">  235.73 1178.47</time>
   <time name="total">  240.38 1201.71</time>
   <energy>
    <i name="e_fr_energy">    -38.76892644 </i>
    <i name="e_wo_entrp">    -38.76892644 </i>
    <i name="e_0_energy">    -38.76892644 </i>
   </energy>
  </scstep>
  <scstep>
   <time name="dav">  196.35  981.61</time>
   <time name="total">  201.07 1005.21</time>
   <energy>
    <i name="e_fr_energy">    -38.77626896 </i>
    <i name="e_wo_entrp">    -38.77626896 </i>
    <i name="e_0_energy">    -38.77626896 </i>
   </energy>
  </scstep>
  <scstep>
   <time name="dav">  229.42 1147.05</time>
   <time name="total">  234.15 1170.71</time>
   <energy>
    <i name="e_fr_energy">    -38.77818070 </i>
    <i name="e_wo_entrp">    -38.77818070 </i>
    <i name="e_0_energy">    -38.77818070 </i>
   </energy>
  </scstep>
  <scstep>
   <time name="dav">  195.57  977.65</time>
   <time name="total">  200.41 1001.86</time>
   <energy>
    <i name="e_fr_energy">    -38.77906874 </i>
    <i name="e_wo_entrp">    -38.77906874 </i>
    <i name="e_0_energy">    -38.77906874 </i>
   </energy>
  </scstep>
  <scstep>
   <time name="dav">  252.89 1264.43</time>
   <time name="total">  257.54 1287.63</time>
   <energy>
    <i name="e_fr_energy">    -38.77958909 </i>
    <i name="e_wo_entrp">    -38.77958909 </i>
    <i name="e_0_energy">    -38.77958909 </i>
   </energy>
  </scstep>
  <scstep>
   <time name="dav">  208.61 1043.03</time>
   <time name="total">  213.43 1067.14</time>
   <energy>
    <i name="e_fr_energy">    -38.78000054 </i>
    <i name="e_wo_entrp">    -38.78000054 </i>
    <i name="e_0_energy">    -38.78000054 </i>
   </energy>
  </scstep>
  <scstep>
   <time name="dav">  224.82 1123.90</time>
   <time name="total">  229.46 1147.13</time>
   <energy>
    <i name="e_fr_energy">    -38.78015357 </i>
    <i name="e_wo_entrp">    -38.78015357 </i>
    <i name="e_0_energy">    -38.78015357 </i>
   </energy>
  </scstep>
  <scstep>
   <time name="dav">  239.55 1197.71</time>
   <time name="total">  244.36 1221.76</time>
   <energy>
    <i name="e_fr_energy">    -38.78022684 </i>
    <i name="e_wo_entrp">    -38.78022684 </i>
    <i name="e_0_energy">    -38.78022684 </i>
   </energy>
  </scstep>
  <scstep>
   <time name="dav">  225.81 1129.08</time>
   <time name="total">  230.35 1151.89</time>
   <energy>
    <i name="e_fr_energy">    -38.78025837 </i>
    <i name="e_wo_entrp">    -38.78025837 </i>
    <i name="e_0_energy">    -38.78025837 </i>
   </energy>
  </scstep>
  <scstep>
   <time name="dav">  206.85 1034.18</time>
   <time name="total">  211.69 1058.39</time>
   <energy>
    <i name="e_fr_energy">    -38.78029155 </i>
    <i name="e_wo_entrp">    -38.78029155 </i>
    <i name="e_0_energy">    -38.78029155 </i>
   </energy>
  </scstep>
  <scstep>
   <time name="dav">  200.55 1002.66</time>
   <time name="total">  205.13 1025.47</time>
   <energy>
    <i name="e_fr_energy">    -38.78030948 </i>
    <i name="e_wo_entrp">    -38.78030948 </i>
    <i name="e_0_energy">    -38.78030948 </i>
   </energy>
  </scstep>
  <scstep>
   <time name="dav">  242.50 1212.34</time>
   <time name="total">  247.07 1235.23</time>
   <energy>
    <i name="e_fr_energy">    -38.78031178 </i>
    <i name="e_wo_entrp">    -38.78031178 </i>
    <i name="e_0_energy">    -38.78031178 </i>
   </energy>
  </scstep>
  <scstep>
   <time name="dav">  192.23  961.05</time>
   <time name="total">  196.98  984.78</time>
   <energy>
    <i name="e_fr_energy">    -38.78031524 </i>
    <i name="e_wo_entrp">    -38.78031524 </i>
    <i name="e_0_energy">    -38.78031524 </i>
   </energy>
  </scstep>
  <scstep>
   <time name="dav">  179.94  899.66</time>
   <time name="total">  184.87  924.34</time>
   <energy>
    <i name="e_fr_energy">    -38.78031789 </i>
    <i name="e_wo_entrp">    -38.78031789 </i>
    <i name="e_0_energy">    -38.78031789 </i>
   </energy>
  </scstep>
  <scstep>
