 vasp.6.5.1 10Mar25 (build Apr 08 2025 20:07:02) complex                        
  
 executed on             LinuxIFC date 2025.06.10  22:16:33
 running   42 mpi-ranks, on    1 nodes
 distrk:  each k-point on   42 cores,    1 groups
 distr:  one band on NCORE=   1 cores,   42 groups


--------------------------------------------------------------------------------------------------------


 INCAR:
   SYSTEM = CrCl3 KPOINT Test
   PREC = Accurate
   ISMEAR = 0
   SIGMA = 0.05
   ENCUT = 520
   ISPIN = 2
   MAGMOM = 2*3.0 6*0.6
   EDIFF = 1E-6
   IBRION = -1
   NSW = 0
   LWAVE = .FALSE.
   LCHARG = .FALSE.

 POTCAR:    PAW_PBE Cr 06Sep2000                  
 POTCAR:    PAW_PBE Cl 06Sep2000                  
 -----------------------------------------------------------------------------
|                                                                             |
|           W    W    AA    RRRRR   N    N  II  N    N   GGGG   !!!           |
|           W    W   A  A   R    R  NN   N  II  NN   N  G    G  !!!           |
|           W    W  A    A  R    R  N N  N  II  N N  N  G       !!!           |
|           W WW W  AAAAAA  RRRRR   N  N N  II  N  N N  G  GGG   !            |
|           WW  WW  A    A  R   R   N   NN  II  N   NN  G    G                |
|           W    W  A    A  R    R  N    N  II  N    N   GGGG   !!!           |
|                                                                             |
|     For optimal performance we recommend to set                             |
|       NCORE = 2 up to number-of-cores-per-socket                            |
|     NCORE specifies how many cores store one orbital (NPAR=cpu/NCORE).      |
|     This setting can greatly improve the performance of VASP for DFT.       |
|     The default, NCORE=1 might be grossly inefficient on modern             |
|     multi-core architectures or massively parallel machines. Do your        |
|     own testing! More info at https://www.vasp.at/wiki/index.php/NCORE      |
|     Unfortunately you need to use the default for GW and RPA                |
|     calculations (for HF NCORE is supported but not extensively tested      |
|     yet).                                                                   |
|                                                                             |
 -----------------------------------------------------------------------------

 POTCAR:    PAW_PBE Cr 06Sep2000                  
   SHA256 =  56e7271fac8042f322b235801e26979132a24da65eb043fa6a03029023cb2fcc Cr/POTCAR             
   COPYR  = (c) Copyright 06Sep2000 Georg Kresse                                                    
   COPYR  = This file is part of the software VASP. Any use, copying, and all other rights are regul
   COPYR  = If you do not have a valid VASP license, you may not use, copy or distribute this file. 
   VRHFIN =Cr : d5 s1                                                                               
   LEXCH  = PE                                                                                      
   EATOM  =   276.8859 eV,   20.3505 Ry                                                             
                                                                                                    
   TITEL  = PAW_PBE Cr 06Sep2000                                                                    
   LULTRA =        F    use ultrasoft PP ?                                                          
   IUNSCR =        1    unscreen: 0-lin 1-nonlin 2-no                                               
   RPACOR =    2.080    partial core radius                                                         
   POMASS =   51.996; ZVAL   =    6.000    mass and valenz                                          
   RCORE  =    2.500    outmost cutoff radius                                                       
   RWIGS  =    2.500; RWIGS  =    1.323    wigner-seitz radius (au A)                               
   ENMAX  =  227.080; ENMIN  =  170.310 eV                                                          
   RCLOC  =    1.721    cutoff for local pot                                                        
   LCOR   =        T    correct aug charges                                                         
   LPAW   =        T    paw PP                                                                      
   EAUG   =  402.108                                                                                
   DEXC   =    0.000                                                                                
   RMAX   =    2.552    core radius for proj-oper                                                   
   RAUG   =    1.300    factor for augmentation sphere                                              
   RDEP   =    2.609    radius for radial grids                                                     
   RDEPT  =    2.065    core radius for aug-charge                                                  
                                                                                                    
   Atomic configuration                                                                             
    9 entries                                                                                       
     n  l   j            E        occ.                                                              
     1  0  0.50     -5880.4963   2.0000                                                             
     2  0  0.50      -667.0865   2.0000                                                             
     2  1  1.50      -560.6250   6.0000                                                             
     3  0  0.50       -73.9860   2.0000                                                             
     3  1  1.50       -45.4378   6.0000                                                             
     3  2  2.50        -2.9137   5.0000                                                             
     4  0  0.50        -4.0071   1.0000                                                             
     4  1  0.50        -1.2789   0.0000                                                             
     4  3  2.50        -1.3606   0.0000                                                             
   Description                                                                                      
     l       E           TYP  RCUT    TYP  RCUT                                                     
     2     -2.9136677     23  2.500                                                                 
     2     -4.2742503     23  2.500                                                                 
     0     -4.0071322     23  2.500                                                                 
     0      9.4498801     23  2.500                                                                 
     1     -5.4423304     23  2.500                                                                 
     1     27.2116520     23  2.500                                                                 
  local pseudopotential read in
  partial core-charges read in
  partial kinetic energy density read in
  atomic valenz-charges read in
  non local Contribution for L=           2  read in
    real space projection operators read in
  non local Contribution for L=           2  read in
    real space projection operators read in
  non local Contribution for L=           0  read in
    real space projection operators read in
  non local Contribution for L=           0  read in
    real space projection operators read in
  non local Contribution for L=           1  read in
    real space projection operators read in
  non local Contribution for L=           1  read in
    real space projection operators read in
    PAW grid and wavefunctions read in
 
   number of l-projection  operators is LMAX  =           6
   number of lm-projection operators is LMMAX =          18
 
 POTCAR:    PAW_PBE Cl 06Sep2000                  
   SHA256 =  9f1b6e6ed4247ac726a768b330d26d7667cc3c95a39ff49c1d064c2d9dcce931 Cl/POTCAR             
   COPYR  = (c) Copyright 06Sep2000 Georg Kresse                                                    
   COPYR  = This file is part of the software VASP. Any use, copying, and all other rights are regul
   COPYR  = If you do not have a valid VASP license, you may not use, copy or distribute this file. 
   VRHFIN =Cl: s2p5                                                                                 
   LEXCH  = PE                                                                                      
   EATOM  =   409.7259 eV,   30.1140 Ry                                                             
                                                                                                    
   TITEL  = PAW_PBE Cl 06Sep2000                                                                    
   LULTRA =        F    use ultrasoft PP ?                                                          
   IUNSCR =        1    unscreen: 0-lin 1-nonlin 2-no                                               
   RPACOR =    1.500    partial core radius                                                         
   POMASS =   35.453; ZVAL   =    7.000    mass and valenz                                          
   RCORE  =    1.900    outmost cutoff radius                                                       
   RWIGS  =    2.100; RWIGS  =    1.111    wigner-seitz radius (au A)                               
   ENMAX  =  262.472; ENMIN  =  196.854 eV                                                          
   ICORE  =        2    local potential                                                             
   LCOR   =        T    correct aug charges                                                         
   LPAW   =        T    paw PP                                                                      
   EAUG   =  356.192                                                                                
   DEXC   =    0.000                                                                                
   RMAX   =    1.945    core radius for proj-oper                                                   
   RAUG   =    1.300    factor for augmentation sphere                                              
   RDEP   =    2.020    radius for radial grids                                                     
   RDEPT  =    1.678    core radius for aug-charge                                                  
                                                                                                    
   Atomic configuration                                                                             
    6 entries                                                                                       
     n  l   j            E        occ.                                                              
     1  0  0.50     -2751.1850   2.0000                                                             
     2  0  0.50      -252.6861   2.0000                                                             
     2  1  1.50      -191.6157   6.0000                                                             
     3  0  0.50       -20.6916   2.0000                                                             
     3  1  0.50        -8.5949   5.0000                                                             
     3  2  1.50        -8.1635   0.0000                                                             
   Description                                                                                      
     l       E           TYP  RCUT    TYP  RCUT                                                     
     0    -20.6915656     23  1.900                                                                 
     0    -22.0521482     23  1.900                                                                 
     1     -8.5948577     23  1.900                                                                 
     1     -5.3847331     23  1.900                                                                 
     2     -8.1634956     23  1.900                                                                 
  local pseudopotential read in
  partial core-charges read in
  partial kinetic energy density read in
  atomic valenz-charges read in
  non local Contribution for L=           0  read in
    real space projection operators read in
  non local Contribution for L=           0  read in
    real space projection operators read in
  non local Contribution for L=           1  read in
    real space projection operators read in
  non local Contribution for L=           1  read in
    real space projection operators read in
    PAW grid and wavefunctions read in
 
   number of l-projection  operators is LMAX  =           4
   number of lm-projection operators is LMMAX =           8
 
  PAW_PBE Cr 06Sep2000                  :
 energy of atom  1       EATOM= -276.8859
 kinetic energy error for atom=    0.0010 (will be added to EATOM!!)
  PAW_PBE Cl 06Sep2000                  :
 energy of atom  2       EATOM= -409.7259
 kinetic energy error for atom=    0.0023 (will be added to EATOM!!)
 
 
 POSCAR: 
 -----------------------------------------------------------------------------
|                                                                             |
|           W    W    AA    RRRRR   N    N  II  N    N   GGGG   !!!           |
|           W    W   A  A   R    R  NN   N  II  NN   N  G    G  !!!           |
|           W    W  A    A  R    R  N N  N  II  N N  N  G       !!!           |
|           W WW W  AAAAAA  RRRRR   N  N N  II  N  N N  G  GGG   !            |
|           WW  WW  A    A  R   R   N   NN  II  N   NN  G    G                |
|           W    W  A    A  R    R  N    N  II  N    N   GGGG   !!!           |
|                                                                             |
|     Inconsistent Bravais lattice types found for crystalline and            |
|     reciprocal lattice:                                                     |
|                                                                             |
|        Crystalline: base-centered monoclinic                                |
|        Reciprocal : triclinic                                               |
|                    (instead of base-centered monoclinic)                    |
|                                                                             |
|     In most cases this is due to inaccuracies in the specification of       |
|     the crytalline lattice vectors.                                         |
|                                                                             |
|     Suggested SOLUTIONS:                                                    |
|      ) Refine the lattice parameters of your structure,                     |
|      ) and/or try changing SYMPREC.                                         |
|                                                                             |
 -----------------------------------------------------------------------------

  positions in cartesian coordinates
  No initial velocities read in


 exchange-correlation table for PE
   RHO(1)=    0.500       N(1)  =     2000
   RHO(2)=  100.500       N(2)  =     4000
 


--------------------------------------------------------------------------------------------------------


 ion  position               nearest neighbor table
   1  0.667  0.333  0.500-   4 2.40   6 2.41   8 2.41   3 2.41   5 2.41   7 2.41
   2  1.000  0.000  0.500-   6 2.40   4 2.41   7 2.41   8 2.41   5 2.41   3 2.41
   3  0.333  0.024  0.560-   1 2.41   2 2.41
   4  0.976  0.309  0.560-   1 2.40   2 2.41
   5  0.691  0.666  0.560-   2 2.41   1 2.41
   6  0.691  0.024  0.440-   2 2.40   1 2.41
   7  0.334  0.309  0.440-   2 2.41   1 2.41
   8  0.976  0.667  0.440-   2 2.41   1 2.41
 
  LATTYP: Found a base centered monoclinic cell.
 ALAT       =    46.0522173584
 B/A-ratio  =     0.2315140720
 C/A-ratio  =     0.4954947411
 COS(beta)  =    -0.9910458493
  
  Lattice vectors:
  
 A1 = (  -6.1563980000,  -0.0015340000, -22.8192420000)
 A2 = (   3.0771110000,  -5.3321000000, -22.8193060000)
 A3 = (   0.0023100000,   0.0042790000,  22.8186310000)


Analysis of symmetry for initial positions (statically):
=====================================================================
 Subroutine PRICEL returns:
 Original cell was already a primitive cell.
 

 Routine SETGRP: Setting up the symmetry group for a 
 base centered monoclinic supercell.


 Subroutine GETGRP returns: Found  1 space group operations
 (whereof  1 operations were pure point group operations)
 out of a pool of  4 trial point group operations.


The static configuration has the point symmetry C_1 .


Analysis of symmetry for dynamics (positions and initial velocities):
=====================================================================
 Subroutine PRICEL returns:
 Original cell was already a primitive cell.
 

 Routine SETGRP: Setting up the symmetry group for a 
 base centered monoclinic supercell.


 Subroutine GETGRP returns: Found  1 space group operations
 (whereof  1 operations were pure point group operations)
 out of a pool of  4 trial point group operations.


The dynamic configuration has the point symmetry C_1 .


Analysis of structural, dynamic, and magnetic symmetry:
=====================================================================
 Subroutine PRICEL returns:
 Original cell was already a primitive cell.
 

 Routine SETGRP: Setting up the symmetry group for a 
 base centered monoclinic supercell.


 Subroutine GETGRP returns: Found  1 space group operations
 (whereof  1 operations were pure point group operations)
 out of a pool of  4 trial point group operations.


The overall configuration has the point symmetry C_1 .


 Subroutine INISYM returns: Found  1 space group operations
 (whereof  1 operations are pure point group operations),
 and found     1 'primitive' translations


----------------------------------------------------------------------------------------

                                     Primitive cell                                     

  volume of cell :     747.9816

  direct lattice vectors                    reciprocal lattice vectors
     6.154088000 -0.002745000  0.000611000     0.162535521  0.093943719 -0.000034071
    -3.079421000  5.327821000  0.000675000     0.000083745  0.187742402 -0.000035214
     0.002310000  0.004279000 22.818631000    -0.000004355 -0.000008069  0.043823840

  length of vectors
     6.154088643  6.153739575 22.818631518     0.187731774  0.187742424  0.043823841

  position of ions in fractional coordinates (direct lattice)
     0.666736594  0.333271515  0.500001034
     0.999932001  0.000057150  0.499996780
     0.333036773  0.024315239  0.559914124
     0.976157585  0.309498728  0.559709996
     0.691010203  0.666388278  0.559921327
     0.690524329  0.023819428  0.440290280
     0.333612637  0.309016604  0.440085142
     0.975657232  0.666961176  0.440079793

  ion indices of the primitive-cell ions
   primitive index   ion index
                 1           1
                 2           2
                 3           3
                 4           4
                 5           5
                 6           6
                 7           7
                 8           8

----------------------------------------------------------------------------------------

 
 
 KPOINTS: Automatic mesh                          

Automatic generation of k-mesh.
 Grid dimensions read from file:
 generate k-points for:   10   10    8

 Generating k-lattice:

  Cartesian coordinates                     Fractional coordinates (reciprocal lattice)
     0.016253552  0.009394372 -0.000003407     0.100000000 -0.000000000 -0.000000000
     0.000008375  0.018774240 -0.000003521    -0.000000000  0.100000000  0.000000000
    -0.000000544 -0.000001009  0.005477980     0.000000000 -0.000000000  0.125000000

  Length of vectors
     0.018773177  0.018774242  0.005477980

  Shift w.r.t. Gamma in fractional coordinates (k-lattice)
     0.500000000  0.500000000  0.500000000

 
 Subroutine IBZKPT returns following result:
 ===========================================
 
 Found    400 irreducible k-points:
 
 Following reciprocal coordinates:
            Coordinates               Weight
  0.050000  0.050000  0.062500      2.000000
  0.150000  0.050000  0.062500      2.000000
  0.250000  0.050000  0.062500      2.000000
  0.350000  0.050000  0.062500      2.000000
  0.450000  0.050000  0.062500      2.000000
 -0.450000  0.050000  0.062500      2.000000
 -0.350000  0.050000  0.062500      2.000000
 -0.250000  0.050000  0.062500      2.000000
 -0.150000  0.050000  0.062500      2.000000
 -0.050000  0.050000  0.062500      2.000000
  0.050000  0.150000  0.062500      2.000000
  0.150000  0.150000  0.062500      2.000000
  0.250000  0.150000  0.062500      2.000000
  0.350000  0.150000  0.062500      2.000000
  0.450000  0.150000  0.062500      2.000000
 -0.450000  0.150000  0.062500      2.000000
 -0.350000  0.150000  0.062500      2.000000
 -0.250000  0.150000  0.062500      2.000000
 -0.150000  0.150000  0.062500      2.000000
 -0.050000  0.150000  0.062500      2.000000
  0.050000  0.250000  0.062500      2.000000
  0.150000  0.250000  0.062500      2.000000
  0.250000  0.250000  0.062500      2.000000
  0.350000  0.250000  0.062500      2.000000
  0.450000  0.250000  0.062500      2.000000
 -0.450000  0.250000  0.062500      2.000000
 -0.350000  0.250000  0.062500      2.000000
 -0.250000  0.250000  0.062500      2.000000
 -0.150000  0.250000  0.062500      2.000000
 -0.050000  0.250000  0.062500      2.000000
  0.050000  0.350000  0.062500      2.000000
  0.150000  0.350000  0.062500      2.000000
  0.250000  0.350000  0.062500      2.000000
  0.350000  0.350000  0.062500      2.000000
  0.450000  0.350000  0.062500      2.000000
 -0.450000  0.350000  0.062500      2.000000
 -0.350000  0.350000  0.062500      2.000000
 -0.250000  0.350000  0.062500      2.000000
 -0.150000  0.350000  0.062500      2.000000
 -0.050000  0.350000  0.062500      2.000000
  0.050000  0.450000  0.062500      2.000000
  0.150000  0.450000  0.062500      2.000000
  0.250000  0.450000  0.062500      2.000000
  0.350000  0.450000  0.062500      2.000000
  0.450000  0.450000  0.062500      2.000000
 -0.450000  0.450000  0.062500      2.000000
 -0.350000  0.450000  0.062500      2.000000
 -0.250000  0.450000  0.062500      2.000000
 -0.150000  0.450000  0.062500      2.000000
 -0.050000  0.450000  0.062500      2.000000
  0.050000 -0.450000  0.062500      2.000000
  0.150000 -0.450000  0.062500      2.000000
  0.250000 -0.450000  0.062500      2.000000
  0.350000 -0.450000  0.062500      2.000000
  0.450000 -0.450000  0.062500      2.000000
 -0.450000 -0.450000  0.062500      2.000000
 -0.350000 -0.450000  0.062500      2.000000
 -0.250000 -0.450000  0.062500      2.000000
 -0.150000 -0.450000  0.062500      2.000000
 -0.050000 -0.450000  0.062500      2.000000
  0.050000 -0.350000  0.062500      2.000000
  0.150000 -0.350000  0.062500      2.000000
  0.250000 -0.350000  0.062500      2.000000
  0.350000 -0.350000  0.062500      2.000000
  0.450000 -0.350000  0.062500      2.000000
 -0.450000 -0.350000  0.062500      2.000000
 -0.350000 -0.350000  0.062500      2.000000
 -0.250000 -0.350000  0.062500      2.000000
 -0.150000 -0.350000  0.062500      2.000000
 -0.050000 -0.350000  0.062500      2.000000
  0.050000 -0.250000  0.062500      2.000000
  0.150000 -0.250000  0.062500      2.000000
  0.250000 -0.250000  0.062500      2.000000
  0.350000 -0.250000  0.062500      2.000000
  0.450000 -0.250000  0.062500      2.000000
 -0.450000 -0.250000  0.062500      2.000000
 -0.350000 -0.250000  0.062500      2.000000
 -0.250000 -0.250000  0.062500      2.000000
 -0.150000 -0.250000  0.062500      2.000000
 -0.050000 -0.250000  0.062500      2.000000
  0.050000 -0.150000  0.062500      2.000000
  0.150000 -0.150000  0.062500      2.000000
  0.250000 -0.150000  0.062500      2.000000
  0.350000 -0.150000  0.062500      2.000000
  0.450000 -0.150000  0.062500      2.000000
 -0.450000 -0.150000  0.062500      2.000000
 -0.350000 -0.150000  0.062500      2.000000
 -0.250000 -0.150000  0.062500      2.000000
 -0.150000 -0.150000  0.062500      2.000000
 -0.050000 -0.150000  0.062500      2.000000
  0.050000 -0.050000  0.062500      2.000000
  0.150000 -0.050000  0.062500      2.000000
  0.250000 -0.050000  0.062500      2.000000
  0.350000 -0.050000  0.062500      2.000000
  0.450000 -0.050000  0.062500      2.000000
 -0.450000 -0.050000  0.062500      2.000000
 -0.350000 -0.050000  0.062500      2.000000
 -0.250000 -0.050000  0.062500      2.000000
 -0.150000 -0.050000  0.062500      2.000000
 -0.050000 -0.050000  0.062500      2.000000
  0.050000  0.050000  0.187500      2.000000
  0.150000  0.050000  0.187500      2.000000
  0.250000  0.050000  0.187500      2.000000
  0.350000  0.050000  0.187500      2.000000
  0.450000  0.050000  0.187500      2.000000
 -0.450000  0.050000  0.187500      2.000000
 -0.350000  0.050000  0.187500      2.000000
 -0.250000  0.050000  0.187500      2.000000
 -0.150000  0.050000  0.187500      2.000000
 -0.050000  0.050000  0.187500      2.000000
  0.050000  0.150000  0.187500      2.000000
  0.150000  0.150000  0.187500      2.000000
  0.250000  0.150000  0.187500      2.000000
  0.350000  0.150000  0.187500      2.000000
  0.450000  0.150000  0.187500      2.000000
 -0.450000  0.150000  0.187500      2.000000
 -0.350000  0.150000  0.187500      2.000000
 -0.250000  0.150000  0.187500      2.000000
 -0.150000  0.150000  0.187500      2.000000
 -0.050000  0.150000  0.187500      2.000000
  0.050000  0.250000  0.187500      2.000000
  0.150000  0.250000  0.187500      2.000000
  0.250000  0.250000  0.187500      2.000000
  0.350000  0.250000  0.187500      2.000000
  0.450000  0.250000  0.187500      2.000000
 -0.450000  0.250000  0.187500      2.000000
 -0.350000  0.250000  0.187500      2.000000
 -0.250000  0.250000  0.187500      2.000000
 -0.150000  0.250000  0.187500      2.000000
 -0.050000  0.250000  0.187500      2.000000
  0.050000  0.350000  0.187500      2.000000
  0.150000  0.350000  0.187500      2.000000
  0.250000  0.350000  0.187500      2.000000
  0.350000  0.350000  0.187500      2.000000
  0.450000  0.350000  0.187500      2.000000
 -0.450000  0.350000  0.187500      2.000000
 -0.350000  0.350000  0.187500      2.000000
 -0.250000  0.350000  0.187500      2.000000
 -0.150000  0.350000  0.187500      2.000000
 -0.050000  0.350000  0.187500      2.000000
  0.050000  0.450000  0.187500      2.000000
  0.150000  0.450000  0.187500      2.000000
  0.250000  0.450000  0.187500      2.000000
  0.350000  0.450000  0.187500      2.000000
  0.450000  0.450000  0.187500      2.000000
 -0.450000  0.450000  0.187500      2.000000
 -0.350000  0.450000  0.187500      2.000000
 -0.250000  0.450000  0.187500      2.000000
 -0.150000  0.450000  0.187500      2.000000
 -0.050000  0.450000  0.187500      2.000000
  0.050000 -0.450000  0.187500      2.000000
  0.150000 -0.450000  0.187500      2.000000
  0.250000 -0.450000  0.187500      2.000000
  0.350000 -0.450000  0.187500      2.000000
  0.450000 -0.450000  0.187500      2.000000
 -0.450000 -0.450000  0.187500      2.000000
 -0.350000 -0.450000  0.187500      2.000000
 -0.250000 -0.450000  0.187500      2.000000
 -0.150000 -0.450000  0.187500      2.000000
 -0.050000 -0.450000  0.187500      2.000000
  0.050000 -0.350000  0.187500      2.000000
  0.150000 -0.350000  0.187500      2.000000
  0.250000 -0.350000  0.187500      2.000000
  0.350000 -0.350000  0.187500      2.000000
  0.450000 -0.350000  0.187500      2.000000
 -0.450000 -0.350000  0.187500      2.000000
 -0.350000 -0.350000  0.187500      2.000000
 -0.250000 -0.350000  0.187500      2.000000
 -0.150000 -0.350000  0.187500      2.000000
 -0.050000 -0.350000  0.187500      2.000000
  0.050000 -0.250000  0.187500      2.000000
  0.150000 -0.250000  0.187500      2.000000
  0.250000 -0.250000  0.187500      2.000000
  0.350000 -0.250000  0.187500      2.000000
  0.450000 -0.250000  0.187500      2.000000
 -0.450000 -0.250000  0.187500      2.000000
 -0.350000 -0.250000  0.187500      2.000000
 -0.250000 -0.250000  0.187500      2.000000
 -0.150000 -0.250000  0.187500      2.000000
 -0.050000 -0.250000  0.187500      2.000000
  0.050000 -0.150000  0.187500      2.000000
  0.150000 -0.150000  0.187500      2.000000
  0.250000 -0.150000  0.187500      2.000000
  0.350000 -0.150000  0.187500      2.000000
  0.450000 -0.150000  0.187500      2.000000
 -0.450000 -0.150000  0.187500      2.000000
 -0.350000 -0.150000  0.187500      2.000000
 -0.250000 -0.150000  0.187500      2.000000
 -0.150000 -0.150000  0.187500      2.000000
 -0.050000 -0.150000  0.187500      2.000000
  0.050000 -0.050000  0.187500      2.000000
  0.150000 -0.050000  0.187500      2.000000
  0.250000 -0.050000  0.187500      2.000000
  0.350000 -0.050000  0.187500      2.000000
  0.450000 -0.050000  0.187500      2.000000
 -0.450000 -0.050000  0.187500      2.000000
 -0.350000 -0.050000  0.187500      2.000000
 -0.250000 -0.050000  0.187500      2.000000
 -0.150000 -0.050000  0.187500      2.000000
 -0.050000 -0.050000  0.187500      2.000000
  0.050000  0.050000  0.312500      2.000000
  0.150000  0.050000  0.312500      2.000000
  0.250000  0.050000  0.312500      2.000000
  0.350000  0.050000  0.312500      2.000000
  0.450000  0.050000  0.312500      2.000000
 -0.450000  0.050000  0.312500      2.000000
 -0.350000  0.050000  0.312500      2.000000
 -0.250000  0.050000  0.312500      2.000000
 -0.150000  0.050000  0.312500      2.000000
 -0.050000  0.050000  0.312500      2.000000
  0.050000  0.150000  0.312500      2.000000
  0.150000  0.150000  0.312500      2.000000
  0.250000  0.150000  0.312500      2.000000
  0.350000  0.150000  0.312500      2.000000
  0.450000  0.150000  0.312500      2.000000
 -0.450000  0.150000  0.312500      2.000000
 -0.350000  0.150000  0.312500      2.000000
 -0.250000  0.150000  0.312500      2.000000
 -0.150000  0.150000  0.312500      2.000000
 -0.050000  0.150000  0.312500      2.000000
  0.050000  0.250000  0.312500      2.000000
  0.150000  0.250000  0.312500      2.000000
  0.250000  0.250000  0.312500      2.000000
  0.350000  0.250000  0.312500      2.000000
  0.450000  0.250000  0.312500      2.000000
 -0.450000  0.250000  0.312500      2.000000
 -0.350000  0.250000  0.312500      2.000000
 -0.250000  0.250000  0.312500      2.000000
 -0.150000  0.250000  0.312500      2.000000
 -0.050000  0.250000  0.312500      2.000000
  0.050000  0.350000  0.312500      2.000000
  0.150000  0.350000  0.312500      2.000000
  0.250000  0.350000  0.312500      2.000000
  0.350000  0.350000  0.312500      2.000000
  0.450000  0.350000  0.312500      2.000000
 -0.450000  0.350000  0.312500      2.000000
 -0.350000  0.350000  0.312500      2.000000
 -0.250000  0.350000  0.312500      2.000000
 -0.150000  0.350000  0.312500      2.000000
 -0.050000  0.350000  0.312500      2.000000
  0.050000  0.450000  0.312500      2.000000
  0.150000  0.450000  0.312500      2.000000
  0.250000  0.450000  0.312500      2.000000
  0.350000  0.450000  0.312500      2.000000
  0.450000  0.450000  0.312500      2.000000
 -0.450000  0.450000  0.312500      2.000000
 -0.350000  0.450000  0.312500      2.000000
 -0.250000  0.450000  0.312500      2.000000
 -0.150000  0.450000  0.312500      2.000000
 -0.050000  0.450000  0.312500      2.000000
  0.050000 -0.450000  0.312500      2.000000
  0.150000 -0.450000  0.312500      2.000000
  0.250000 -0.450000  0.312500      2.000000
  0.350000 -0.450000  0.312500      2.000000
  0.450000 -0.450000  0.312500      2.000000
 -0.450000 -0.450000  0.312500      2.000000
 -0.350000 -0.450000  0.312500      2.000000
 -0.250000 -0.450000  0.312500      2.000000
 -0.150000 -0.450000  0.312500      2.000000
 -0.050000 -0.450000  0.312500      2.000000
  0.050000 -0.350000  0.312500      2.000000
  0.150000 -0.350000  0.312500      2.000000
  0.250000 -0.350000  0.312500      2.000000
  0.350000 -0.350000  0.312500      2.000000
  0.450000 -0.350000  0.312500      2.000000
 -0.450000 -0.350000  0.312500      2.000000
 -0.350000 -0.350000  0.312500      2.000000
 -0.250000 -0.350000  0.312500      2.000000
 -0.150000 -0.350000  0.312500      2.000000
 -0.050000 -0.350000  0.312500      2.000000
  0.050000 -0.250000  0.312500      2.000000
  0.150000 -0.250000  0.312500      2.000000
  0.250000 -0.250000  0.312500      2.000000
  0.350000 -0.250000  0.312500      2.000000
  0.450000 -0.250000  0.312500      2.000000
 -0.450000 -0.250000  0.312500      2.000000
 -0.350000 -0.250000  0.312500      2.000000
 -0.250000 -0.250000  0.312500      2.000000
 -0.150000 -0.250000  0.312500      2.000000
 -0.050000 -0.250000  0.312500      2.000000
  0.050000 -0.150000  0.312500      2.000000
  0.150000 -0.150000  0.312500      2.000000
  0.250000 -0.150000  0.312500      2.000000
  0.350000 -0.150000  0.312500      2.000000
  0.450000 -0.150000  0.312500      2.000000
 -0.450000 -0.150000  0.312500      2.000000
 -0.350000 -0.150000  0.312500      2.000000
 -0.250000 -0.150000  0.312500      2.000000
 -0.150000 -0.150000  0.312500      2.000000
 -0.050000 -0.150000  0.312500      2.000000
  0.050000 -0.050000  0.312500      2.000000
  0.150000 -0.050000  0.312500      2.000000
  0.250000 -0.050000  0.312500      2.000000
  0.350000 -0.050000  0.312500      2.000000
  0.450000 -0.050000  0.312500      2.000000
 -0.450000 -0.050000  0.312500      2.000000
 -0.350000 -0.050000  0.312500      2.000000
 -0.250000 -0.050000  0.312500      2.000000
 -0.150000 -0.050000  0.312500      2.000000
 -0.050000 -0.050000  0.312500      2.000000
  0.050000  0.050000  0.437500      2.000000
  0.150000  0.050000  0.437500      2.000000
  0.250000  0.050000  0.437500      2.000000
  0.350000  0.050000  0.437500      2.000000
  0.450000  0.050000  0.437500      2.000000
 -0.450000  0.050000  0.437500      2.000000
 -0.350000  0.050000  0.437500      2.000000
 -0.250000  0.050000  0.437500      2.000000
 -0.150000  0.050000  0.437500      2.000000
 -0.050000  0.050000  0.437500      2.000000
  0.050000  0.150000  0.437500      2.000000
  0.150000  0.150000  0.437500      2.000000
  0.250000  0.150000  0.437500      2.000000
  0.350000  0.150000  0.437500      2.000000
  0.450000  0.150000  0.437500      2.000000
 -0.450000  0.150000  0.437500      2.000000
 -0.350000  0.150000  0.437500      2.000000
 -0.250000  0.150000  0.437500      2.000000
 -0.150000  0.150000  0.437500      2.000000
 -0.050000  0.150000  0.437500      2.000000
  0.050000  0.250000  0.437500      2.000000
  0.150000  0.250000  0.437500      2.000000
  0.250000  0.250000  0.437500      2.000000
  0.350000  0.250000  0.437500      2.000000
  0.450000  0.250000  0.437500      2.000000
 -0.450000  0.250000  0.437500      2.000000
 -0.350000  0.250000  0.437500      2.000000
 -0.250000  0.250000  0.437500      2.000000
 -0.150000  0.250000  0.437500      2.000000
 -0.050000  0.250000  0.437500      2.000000
  0.050000  0.350000  0.437500      2.000000
  0.150000  0.350000  0.437500      2.000000
  0.250000  0.350000  0.437500      2.000000
  0.350000  0.350000  0.437500      2.000000
  0.450000  0.350000  0.437500      2.000000
 -0.450000  0.350000  0.437500      2.000000
 -0.350000  0.350000  0.437500      2.000000
 -0.250000  0.350000  0.437500      2.000000
 -0.150000  0.350000  0.437500      2.000000
 -0.050000  0.350000  0.437500      2.000000
  0.050000  0.450000  0.437500      2.000000
  0.150000  0.450000  0.437500      2.000000
  0.250000  0.450000  0.437500      2.000000
  0.350000  0.450000  0.437500      2.000000
  0.450000  0.450000  0.437500      2.000000
 -0.450000  0.450000  0.437500      2.000000
 -0.350000  0.450000  0.437500      2.000000
 -0.250000  0.450000  0.437500      2.000000
 -0.150000  0.450000  0.437500      2.000000
 -0.050000  0.450000  0.437500      2.000000
  0.050000 -0.450000  0.437500      2.000000
  0.150000 -0.450000  0.437500      2.000000
  0.250000 -0.450000  0.437500      2.000000
  0.350000 -0.450000  0.437500      2.000000
  0.450000 -0.450000  0.437500      2.000000
 -0.450000 -0.450000  0.437500      2.000000
 -0.350000 -0.450000  0.437500      2.000000
 -0.250000 -0.450000  0.437500      2.000000
 -0.150000 -0.450000  0.437500      2.000000
 -0.050000 -0.450000  0.437500      2.000000
  0.050000 -0.350000  0.437500      2.000000
  0.150000 -0.350000  0.437500      2.000000
  0.250000 -0.350000  0.437500      2.000000
  0.350000 -0.350000  0.437500      2.000000
  0.450000 -0.350000  0.437500      2.000000
 -0.450000 -0.350000  0.437500      2.000000
 -0.350000 -0.350000  0.437500      2.000000
 -0.250000 -0.350000  0.437500      2.000000
 -0.150000 -0.350000  0.437500      2.000000
 -0.050000 -0.350000  0.437500      2.000000
  0.050000 -0.250000  0.437500      2.000000
  0.150000 -0.250000  0.437500      2.000000
  0.250000 -0.250000  0.437500      2.000000
  0.350000 -0.250000  0.437500      2.000000
  0.450000 -0.250000  0.437500      2.000000
 -0.450000 -0.250000  0.437500      2.000000
 -0.350000 -0.250000  0.437500      2.000000
 -0.250000 -0.250000  0.437500      2.000000
 -0.150000 -0.250000  0.437500      2.000000
 -0.050000 -0.250000  0.437500      2.000000
  0.050000 -0.150000  0.437500      2.000000
  0.150000 -0.150000  0.437500      2.000000
  0.250000 -0.150000  0.437500      2.000000
  0.350000 -0.150000  0.437500      2.000000
  0.450000 -0.150000  0.437500      2.000000
 -0.450000 -0.150000  0.437500      2.000000
 -0.350000 -0.150000  0.437500      2.000000
 -0.250000 -0.150000  0.437500      2.000000
 -0.150000 -0.150000  0.437500      2.000000
 -0.050000 -0.150000  0.437500      2.000000
  0.050000 -0.050000  0.437500      2.000000
  0.150000 -0.050000  0.437500      2.000000
  0.250000 -0.050000  0.437500      2.000000
  0.350000 -0.050000  0.437500      2.000000
  0.450000 -0.050000  0.437500      2.000000
 -0.450000 -0.050000  0.437500      2.000000
 -0.350000 -0.050000  0.437500      2.000000
 -0.250000 -0.050000  0.437500      2.000000
 -0.150000 -0.050000  0.437500      2.000000
 -0.050000 -0.050000  0.437500      2.000000
 
 Following cartesian coordinates:
            Coordinates               Weight
  0.008131  0.014084  0.002736      2.000000
  0.024384  0.023478  0.002732      2.000000
  0.040638  0.032873  0.002729      2.000000
  0.056891  0.042267  0.002725      2.000000
  0.073145  0.051661  0.002722      2.000000
 -0.073137 -0.032888  0.002753      2.000000
 -0.056884 -0.023494  0.002749      2.000000
 -0.040630 -0.014099  0.002746      2.000000
 -0.024376 -0.004705  0.002742      2.000000
 -0.008123  0.004689  0.002739      2.000000
  0.008139  0.032858  0.002732      2.000000
  0.024393  0.042252  0.002729      2.000000
  0.040646  0.051647  0.002725      2.000000
  0.056900  0.061041  0.002722      2.000000
  0.073153  0.070436  0.002718      2.000000
 -0.073129 -0.014114  0.002749      2.000000
 -0.056875 -0.004719  0.002746      2.000000
 -0.040622  0.004675  0.002742      2.000000
 -0.024368  0.014069  0.002739      2.000000
 -0.008114  0.023464  0.002735      2.000000
  0.008147  0.051632  0.002728      2.000000
  0.024401  0.061027  0.002725      2.000000
  0.040655  0.070421  0.002722      2.000000
  0.056908  0.079815  0.002718      2.000000
  0.073162  0.089210  0.002715      2.000000
 -0.073120  0.004660  0.002746      2.000000
 -0.056867  0.014055  0.002742      2.000000
 -0.040613  0.023449  0.002739      2.000000
 -0.024360  0.032844  0.002735      2.000000
 -0.008106  0.042238  0.002732      2.000000
  0.008156  0.070407  0.002725      2.000000
  0.024409  0.079801  0.002722      2.000000
  0.040663  0.089195  0.002718      2.000000
  0.056916  0.098590  0.002715      2.000000
  0.073170  0.107984  0.002711      2.000000
 -0.073112  0.023435  0.002742      2.000000
 -0.056858  0.032829  0.002739      2.000000
 -0.040605  0.042223  0.002735      2.000000
 -0.024351  0.051618  0.002732      2.000000
 -0.008098  0.061012  0.002728      2.000000
  0.008164  0.089181  0.002721      2.000000
  0.024418  0.098575  0.002718      2.000000
  0.040671  0.107970  0.002715      2.000000
  0.056925  0.117364  0.002711      2.000000
  0.073178  0.126758  0.002708      2.000000
 -0.073104  0.042209  0.002738      2.000000
 -0.056850  0.051603  0.002735      2.000000
 -0.040596  0.060998  0.002732      2.000000
 -0.024343  0.070392  0.002728      2.000000
 -0.008089  0.079786  0.002725      2.000000
  0.008089 -0.079787  0.002753      2.000000
  0.024342 -0.070393  0.002750      2.000000
  0.040596 -0.060999  0.002746      2.000000
  0.056849 -0.051604  0.002743      2.000000
  0.073103 -0.042210  0.002740      2.000000
 -0.073179 -0.126759  0.002770      2.000000
 -0.056925 -0.117365  0.002767      2.000000
 -0.040672 -0.107971  0.002763      2.000000
 -0.024418 -0.098576  0.002760      2.000000
 -0.008165 -0.089182  0.002757      2.000000
  0.008097 -0.061013  0.002750      2.000000
  0.024351 -0.051619  0.002746      2.000000
  0.040604 -0.042224  0.002743      2.000000
  0.056858 -0.032830  0.002739      2.000000
  0.073111 -0.023436  0.002736      2.000000
 -0.073171 -0.107985  0.002767      2.000000
 -0.056917 -0.098591  0.002763      2.000000
 -0.040663 -0.089196  0.002760      2.000000
 -0.024410 -0.079802  0.002756      2.000000
 -0.008156 -0.070408  0.002753      2.000000
  0.008106 -0.042239  0.002746      2.000000
  0.024359 -0.032845  0.002743      2.000000
  0.040613 -0.023450  0.002739      2.000000
  0.056866 -0.014056  0.002736      2.000000
  0.073120 -0.004661  0.002732      2.000000
 -0.073162 -0.089211  0.002763      2.000000
 -0.056909 -0.079816  0.002760      2.000000
 -0.040655 -0.070422  0.002756      2.000000
 -0.024402 -0.061028  0.002753      2.000000
 -0.008148 -0.051633  0.002749      2.000000
  0.008114 -0.023465  0.002743      2.000000
  0.024367 -0.014070  0.002739      2.000000
  0.040621 -0.004676  0.002736      2.000000
  0.056875  0.004718  0.002732      2.000000
  0.073128  0.014113  0.002729      2.000000
 -0.073154 -0.070437  0.002760      2.000000
 -0.056900 -0.061042  0.002756      2.000000
 -0.040647 -0.051648  0.002753      2.000000
 -0.024393 -0.042253  0.002749      2.000000
 -0.008140 -0.032859  0.002746      2.000000
  0.008122 -0.004690  0.002739      2.000000
  0.024376  0.004704  0.002736      2.000000
  0.040629  0.014098  0.002732      2.000000
  0.056883  0.023493  0.002729      2.000000
  0.073137  0.032887  0.002725      2.000000
 -0.073145 -0.051662  0.002756      2.000000
 -0.056892 -0.042268  0.002753      2.000000
 -0.040638 -0.032874  0.002749      2.000000
 -0.024385 -0.023479  0.002746      2.000000
 -0.008131 -0.014085  0.002742      2.000000
  0.008130  0.014083  0.008214      2.000000
  0.024384  0.023477  0.008210      2.000000
  0.040637  0.032872  0.008207      2.000000
  0.056891  0.042266  0.008203      2.000000
  0.073144  0.051660  0.008200      2.000000
 -0.073138 -0.032889  0.008231      2.000000
 -0.056884 -0.023495  0.008227      2.000000
 -0.040631 -0.014100  0.008224      2.000000
 -0.024377 -0.004706  0.008220      2.000000
 -0.008123  0.004688  0.008217      2.000000
  0.008139  0.032857  0.008210      2.000000
  0.024392  0.042251  0.008207      2.000000
  0.040646  0.051646  0.008203      2.000000
  0.056899  0.061040  0.008200      2.000000
  0.073153  0.070435  0.008196      2.000000
 -0.073129 -0.014115  0.008227      2.000000
 -0.056876 -0.004720  0.008224      2.000000
 -0.040622  0.004674  0.008220      2.000000
 -0.024369  0.014068  0.008217      2.000000
 -0.008115  0.023463  0.008213      2.000000
  0.008147  0.051631  0.008206      2.000000
  0.024400  0.061026  0.008203      2.000000
  0.040654  0.070420  0.008200      2.000000
  0.056908  0.079814  0.008196      2.000000
  0.073161  0.089209  0.008193      2.000000
 -0.073121  0.004659  0.008223      2.000000
 -0.056867  0.014054  0.008220      2.000000
 -0.040614  0.023448  0.008217      2.000000
 -0.024360  0.032843  0.008213      2.000000
 -0.008107  0.042237  0.008210      2.000000
  0.008155  0.070406  0.008203      2.000000
  0.024409  0.079800  0.008200      2.000000
  0.040662  0.089194  0.008196      2.000000
  0.056916  0.098589  0.008193      2.000000
  0.073169  0.107983  0.008189      2.000000
 -0.073112  0.023434  0.008220      2.000000
 -0.056859  0.032828  0.008217      2.000000
 -0.040605  0.042222  0.008213      2.000000
 -0.024352  0.051617  0.008210      2.000000
 -0.008098  0.061011  0.008206      2.000000
  0.008164  0.089180  0.008199      2.000000
  0.024417  0.098574  0.008196      2.000000
  0.040671  0.107968  0.008193      2.000000
  0.056924  0.117363  0.008189      2.000000
  0.073178  0.126757  0.008186      2.000000
 -0.073104  0.042208  0.008216      2.000000
 -0.056851  0.051602  0.008213      2.000000
 -0.040597  0.060997  0.008210      2.000000
 -0.024343  0.070391  0.008206      2.000000
 -0.008090  0.079785  0.008203      2.000000
  0.008088 -0.079788  0.008231      2.000000
  0.024342 -0.070394  0.008228      2.000000
  0.040595 -0.061000  0.008224      2.000000
  0.056849 -0.051605  0.008221      2.000000
  0.073102 -0.042211  0.008217      2.000000
 -0.073179 -0.126760  0.008248      2.000000
 -0.056926 -0.117366  0.008245      2.000000
 -0.040672 -0.107972  0.008241      2.000000
 -0.024419 -0.098577  0.008238      2.000000
 -0.008165 -0.089183  0.008235      2.000000
  0.008097 -0.061014  0.008228      2.000000
  0.024350 -0.051620  0.008224      2.000000
  0.040604 -0.042225  0.008221      2.000000
  0.056857 -0.032831  0.008217      2.000000
  0.073111 -0.023437  0.008214      2.000000
 -0.073171 -0.107986  0.008245      2.000000
 -0.056918 -0.098592  0.008241      2.000000
 -0.040664 -0.089197  0.008238      2.000000
 -0.024410 -0.079803  0.008234      2.000000
 -0.008157 -0.070409  0.008231      2.000000
  0.008105 -0.042240  0.008224      2.000000
  0.024359 -0.032846  0.008221      2.000000
  0.040612 -0.023451  0.008217      2.000000
  0.056866 -0.014057  0.008214      2.000000
  0.073119 -0.004662  0.008210      2.000000
 -0.073163 -0.089212  0.008241      2.000000
 -0.056909 -0.079817  0.008238      2.000000
 -0.040656 -0.070423  0.008234      2.000000
 -0.024402 -0.061029  0.008231      2.000000
 -0.008149 -0.051634  0.008227      2.000000
  0.008113 -0.023466  0.008221      2.000000
  0.024367 -0.014071  0.008217      2.000000
  0.040621 -0.004677  0.008214      2.000000
  0.056874  0.004717  0.008210      2.000000
  0.073128  0.014112  0.008207      2.000000
 -0.073154 -0.070438  0.008238      2.000000
 -0.056901 -0.061043  0.008234      2.000000
 -0.040647 -0.051649  0.008231      2.000000
 -0.024394 -0.042254  0.008227      2.000000
 -0.008140 -0.032860  0.008224      2.000000
  0.008122 -0.004691  0.008217      2.000000
  0.024375  0.004703  0.008214      2.000000
  0.040629  0.014097  0.008210      2.000000
  0.056882  0.023492  0.008207      2.000000
  0.073136  0.032886  0.008203      2.000000
 -0.073146 -0.051663  0.008234      2.000000
 -0.056892 -0.042269  0.008231      2.000000
 -0.040639 -0.032875  0.008227      2.000000
 -0.024385 -0.023480  0.008224      2.000000
 -0.008132 -0.014086  0.008220      2.000000
  0.008130  0.014082  0.013691      2.000000
  0.024383  0.023476  0.013688      2.000000
  0.040637  0.032871  0.013685      2.000000
  0.056890  0.042265  0.013681      2.000000
  0.073144  0.051659  0.013678      2.000000
 -0.073138 -0.032890  0.013709      2.000000
 -0.056885 -0.023496  0.013705      2.000000
 -0.040631 -0.014101  0.013702      2.000000
 -0.024378 -0.004707  0.013698      2.000000
 -0.008124  0.004687  0.013695      2.000000
  0.008138  0.032856  0.013688      2.000000
  0.024392  0.042250  0.013685      2.000000
  0.040645  0.051645  0.013681      2.000000
  0.056899  0.061039  0.013678      2.000000
  0.073152  0.070434  0.013674      2.000000
 -0.073130 -0.014116  0.013705      2.000000
 -0.056876 -0.004721  0.013702      2.000000
 -0.040623  0.004673  0.013698      2.000000
 -0.024369  0.014067  0.013695      2.000000
 -0.008116  0.023462  0.013691      2.000000
  0.008146  0.051630  0.013684      2.000000
  0.024400  0.061025  0.013681      2.000000
  0.040653  0.070419  0.013678      2.000000
  0.056907  0.079813  0.013674      2.000000
  0.073161  0.089208  0.013671      2.000000
 -0.073121  0.004658  0.013701      2.000000
 -0.056868  0.014053  0.013698      2.000000
 -0.040614  0.023447  0.013695      2.000000
 -0.024361  0.032842  0.013691      2.000000
 -0.008107  0.042236  0.013688      2.000000
  0.008155  0.070405  0.013681      2.000000
  0.024408  0.079799  0.013678      2.000000
  0.040662  0.089193  0.013674      2.000000
  0.056915  0.098588  0.013671      2.000000
  0.073169  0.107982  0.013667      2.000000
 -0.073113  0.023433  0.013698      2.000000
 -0.056859  0.032827  0.013695      2.000000
 -0.040606  0.042221  0.013691      2.000000
 -0.024352  0.051616  0.013688      2.000000
 -0.008099  0.061010  0.013684      2.000000
  0.008163  0.089179  0.013677      2.000000
  0.024417  0.098573  0.013674      2.000000
  0.040670  0.107967  0.013671      2.000000
  0.056924  0.117362  0.013667      2.000000
  0.073177  0.126756  0.013664      2.000000
 -0.073105  0.042207  0.013694      2.000000
 -0.056851  0.051601  0.013691      2.000000
 -0.040598  0.060996  0.013688      2.000000
 -0.024344  0.070390  0.013684      2.000000
 -0.008090  0.079784  0.013681      2.000000
  0.008088 -0.079789  0.013709      2.000000
  0.024341 -0.070395  0.013706      2.000000
  0.040595 -0.061001  0.013702      2.000000
  0.056848 -0.051606  0.013699      2.000000
  0.073102 -0.042212  0.013695      2.000000
 -0.073180 -0.126761  0.013726      2.000000
 -0.056926 -0.117367  0.013723      2.000000
 -0.040673 -0.107973  0.013719      2.000000
 -0.024419 -0.098578  0.013716      2.000000
 -0.008166 -0.089184  0.013713      2.000000
  0.008096 -0.061015  0.013706      2.000000
  0.024350 -0.051621  0.013702      2.000000
  0.040603 -0.042226  0.013699      2.000000
  0.056857 -0.032832  0.013695      2.000000
  0.073110 -0.023438  0.013692      2.000000
 -0.073172 -0.107987  0.013723      2.000000
 -0.056918 -0.098593  0.013719      2.000000
 -0.040665 -0.089198  0.013716      2.000000
 -0.024411 -0.079804  0.013712      2.000000
 -0.008157 -0.070410  0.013709      2.000000
  0.008104 -0.042241  0.013702      2.000000
  0.024358 -0.032847  0.013699      2.000000
  0.040612 -0.023452  0.013695      2.000000
  0.056865 -0.014058  0.013692      2.000000
  0.073119 -0.004663  0.013688      2.000000
 -0.073163 -0.089213  0.013719      2.000000
 -0.056910 -0.079818  0.013716      2.000000
 -0.040656 -0.070424  0.013712      2.000000
 -0.024403 -0.061030  0.013709      2.000000
 -0.008149 -0.051635  0.013705      2.000000
  0.008113 -0.023467  0.013699      2.000000
  0.024366 -0.014072  0.013695      2.000000
  0.040620 -0.004678  0.013692      2.000000
  0.056874  0.004716  0.013688      2.000000
  0.073127  0.014111  0.013685      2.000000
 -0.073155 -0.070439  0.013716      2.000000
 -0.056901 -0.061044  0.013712      2.000000
 -0.040648 -0.051650  0.013709      2.000000
 -0.024394 -0.042255  0.013705      2.000000
 -0.008141 -0.032861  0.013702      2.000000
  0.008121 -0.004692  0.013695      2.000000
  0.024375  0.004702  0.013692      2.000000
  0.040628  0.014096  0.013688      2.000000
  0.056882  0.023491  0.013685      2.000000
  0.073135  0.032885  0.013681      2.000000
 -0.073147 -0.051664  0.013712      2.000000
 -0.056893 -0.042270  0.013709      2.000000
 -0.040639 -0.032876  0.013705      2.000000
 -0.024386 -0.023481  0.013702      2.000000
 -0.008132 -0.014087  0.013698      2.000000
  0.008129  0.014081  0.019169      2.000000
  0.024383  0.023475  0.019166      2.000000
  0.040636  0.032870  0.019163      2.000000
  0.056890  0.042264  0.019159      2.000000
  0.073143  0.051658  0.019156      2.000000
 -0.073139 -0.032891  0.019187      2.000000
 -0.056885 -0.023497  0.019183      2.000000
 -0.040632 -0.014102  0.019180      2.000000
 -0.024378 -0.004708  0.019176      2.000000
 -0.008124  0.004686  0.019173      2.000000
  0.008137  0.032855  0.019166      2.000000
  0.024391  0.042249  0.019163      2.000000
  0.040645  0.051644  0.019159      2.000000
  0.056898  0.061038  0.019156      2.000000
  0.073152  0.070433  0.019152      2.000000
 -0.073130 -0.014117  0.019183      2.000000
 -0.056877 -0.004722  0.019180      2.000000
 -0.040623  0.004672  0.019176      2.000000
 -0.024370  0.014066  0.019173      2.000000
 -0.008116  0.023461  0.019169      2.000000
  0.008146  0.051629  0.019162      2.000000
  0.024399  0.061024  0.019159      2.000000
  0.040653  0.070418  0.019156      2.000000
  0.056906  0.079812  0.019152      2.000000
  0.073160  0.089207  0.019149      2.000000
 -0.073122  0.004657  0.019179      2.000000
 -0.056868  0.014052  0.019176      2.000000
 -0.040615  0.023446  0.019173      2.000000
 -0.024361  0.032841  0.019169      2.000000
 -0.008108  0.042235  0.019166      2.000000
  0.008154  0.070403  0.019159      2.000000
  0.024408  0.079798  0.019155      2.000000
  0.040661  0.089192  0.019152      2.000000
  0.056915  0.098587  0.019149      2.000000
  0.073168  0.107981  0.019145      2.000000
 -0.073114  0.023432  0.019176      2.000000
 -0.056860  0.032826  0.019173      2.000000
 -0.040606  0.042220  0.019169      2.000000
 -0.024353  0.051615  0.019166      2.000000
 -0.008099  0.061009  0.019162      2.000000
  0.008163  0.089178  0.019155      2.000000
  0.024416  0.098572  0.019152      2.000000
  0.040670  0.107966  0.019149      2.000000
  0.056923  0.117361  0.019145      2.000000
  0.073177  0.126755  0.019142      2.000000
 -0.073105  0.042206  0.019172      2.000000
 -0.056852  0.051600  0.019169      2.000000
 -0.040598  0.060995  0.019166      2.000000
 -0.024345  0.070389  0.019162      2.000000
 -0.008091  0.079783  0.019159      2.000000
  0.008087 -0.079790  0.019187      2.000000
  0.024341 -0.070396  0.019184      2.000000
  0.040594 -0.061002  0.019180      2.000000
  0.056848 -0.051607  0.019177      2.000000
  0.073101 -0.042213  0.019173      2.000000
 -0.073181 -0.126762  0.019204      2.000000
 -0.056927 -0.117368  0.019201      2.000000
 -0.040673 -0.107974  0.019197      2.000000
 -0.024420 -0.098579  0.019194      2.000000
 -0.008166 -0.089185  0.019190      2.000000
  0.008096 -0.061016  0.019184      2.000000
  0.024349 -0.051622  0.019180      2.000000
  0.040603 -0.042227  0.019177      2.000000
  0.056856 -0.032833  0.019173      2.000000
  0.073110 -0.023439  0.019170      2.000000
 -0.073172 -0.107988  0.019201      2.000000
 -0.056919 -0.098594  0.019197      2.000000
 -0.040665 -0.089199  0.019194      2.000000
 -0.024412 -0.079805  0.019190      2.000000
 -0.008158 -0.070411  0.019187      2.000000
  0.008104 -0.042242  0.019180      2.000000
  0.024357 -0.032848  0.019177      2.000000
  0.040611 -0.023453  0.019173      2.000000
  0.056865 -0.014059  0.019170      2.000000
  0.073118 -0.004664  0.019166      2.000000
 -0.073164 -0.089214  0.019197      2.000000
 -0.056910 -0.079819  0.019194      2.000000
 -0.040657 -0.070425  0.019190      2.000000
 -0.024403 -0.061031  0.019187      2.000000
 -0.008150 -0.051636  0.019183      2.000000
  0.008112 -0.023468  0.019177      2.000000
  0.024366 -0.014073  0.019173      2.000000
  0.040619 -0.004679  0.019170      2.000000
  0.056873  0.004715  0.019166      2.000000
  0.073127  0.014110  0.019163      2.000000
 -0.073155 -0.070440  0.019194      2.000000
 -0.056902 -0.061045  0.019190      2.000000
 -0.040648 -0.051651  0.019187      2.000000
 -0.024395 -0.042256  0.019183      2.000000
 -0.008141 -0.032862  0.019180      2.000000
  0.008121 -0.004693  0.019173      2.000000
  0.024374  0.004701  0.019170      2.000000
  0.040628  0.014095  0.019166      2.000000
  0.056881  0.023490  0.019163      2.000000
  0.073135  0.032884  0.019159      2.000000
 -0.073147 -0.051665  0.019190      2.000000
 -0.056894 -0.042271  0.019187      2.000000
 -0.040640 -0.032877  0.019183      2.000000
 -0.024386 -0.023482  0.019180      2.000000
 -0.008133 -0.014088  0.019176      2.000000
 


--------------------------------------------------------------------------------------------------------




 Dimension of arrays:
   k-points           NKPTS =    400   k-points in BZ     NKDIM =    400   number of bands    NBANDS=     42
   number of dos      NEDOS =    301   number of ions     NIONS =      8
   non local maximal  LDIM  =      6   non local SUM 2l+1 LMDIM =     18
   total plane-waves  NPLWV = 414720
   max r-space proj   IRMAX =      1   max aug-charges    IRDMAX=  28521
   dimension x,y,z NGX =    48 NGY =   48 NGZ =  180
   dimension x,y,z NGXF=    96 NGYF=   96 NGZF=  360
   support grid    NGXF=    96 NGYF=   96 NGZF=  360
   ions per type =               2   6
   NGX,Y,Z   is equivalent  to a cutoff of  12.97, 12.97, 13.11 a.u.
   NGXF,Y,Z  is equivalent  to a cutoff of  25.93, 25.93, 26.23 a.u.

 SYSTEM =  CrCl3 KPOINT Test                       
 POSCAR =                                          

 Startparameter for this run:
   NWRITE =      2    write-flag & timer
   PREC   = accura    normal or accurate (medium, high low for compatibility)
   ISTART =      0    job   : 0-new  1-cont  2-samecut
   ICHARG =      2    charge: 1-file 2-atom 10-const
   ISPIN  =      2    spin polarized calculation?
   LNONCOLLINEAR =      F non collinear calculations
   LSORBIT =      F    spin-orbit coupling
   INIWAV =      1    electr: 0-lowe 1-rand  2-diag
   LASPH  =      F    aspherical Exc in radial PAW
 Electronic Relaxation 1
   ENCUT  =  520.0 eV  38.22 Ry    6.18 a.u.  11.44 11.44 42.43*2*pi/ulx,y,z
   ENINI  =  520.0     initial cutoff
   ENAUG  =  402.1 eV  augmentation charge cutoff
   NELM   =     60;   NELMIN=  2; NELMDL= -5     # of ELM steps 
   EDIFF  = 0.1E-05   stopping-criterion for ELM
   LREAL  =      F    real-space projection
   NLSPLINE    = F    spline interpolate recip. space projectors
   LCOMPAT=      F    compatible to vasp.4.4
   GGA_COMPAT  = T    GGA compatible to vasp.4.4-vasp.4.6
   LMAXPAW     = -100 max onsite density
   LMAXMIX     =    2 max onsite mixed and CHGCAR
   VOSKOWN=      0    Vosko Wilk Nusair interpolation
   ROPT   =    0.00000   0.00000
 Ionic relaxation
   EDIFFG = 0.1E-04   stopping-criterion for IOM
   NSW    =      0    number of steps for IOM
   NBLOCK =      1;   KBLOCK =      1    inner block; outer block 
   IBRION =     -1    ionic relax: 0-MD 1-quasi-New 2-CG
   NFREE  =      0    steps in history (QN), initial steepest desc. (CG)
   ISIF   =      2    stress and relaxation
   IWAVPR =     10    prediction:  0-non 1-charg 2-wave 3-comb
   ISYM   =      2    0-nonsym 1-usesym 2-fastsym
   LCORR  =      T    Harris-Foulkes like correction to forces

   POTIM  = 0.5000    time-step for ionic-motion
   TEIN   =    0.0    initial temperature
   TEBEG  =    0.0;   TEEND  =   0.0 temperature during run
   SMASS  =  -3.00    Nose mass-parameter (am)
   estimated Nose-frequenzy (Omega)   =  0.10E-29 period in steps = 0.13E+47 mass=  -0.865E-27a.u.
   SCALEE = 1.0000    scale energy and forces
   NPACO  =    256;   APACO  = 10.0  distance and # of slots for P.C.
   PSTRESS=    0.0 pullay stress

  Mass of Ions in am
   POMASS =  52.00 35.45
  Ionic Valenz
   ZVAL   =   6.00  7.00
  Atomic Wigner-Seitz radii
   RWIGS  =  -1.00 -1.00
  virtual crystal weights 
   VCA    =   1.00  1.00
   NELECT =      54.0000    total number of electrons
   NUPDOWN=      -1.0000    fix difference up-down

 DOS related values:
   EMIN   =  10.00;   EMAX   =-10.00  energy-range for DOS
   EFERMI =   0.00;   METHOD = LEGACY      
   ISMEAR =     0;   SIGMA  =   0.05  broadening in eV -4-tet -1-fermi 0-gaus
   EFERMI_NEDOS =   21; number of points for ismear=-14 and -15

 Electronic relaxation 2 (details)
   IALGO  =     38    algorithm
   LDIAG  =      T    sub-space diagonalisation (order eigenvalues)
   LSUBROT=      F    optimize rotation matrix (better conditioning)
   LROBUST=      F    robust break criterion during scf (extrapolated energy error)
   ISEARCH=      0    line search for conjugate gradient (0, 1=use gradient)
   TURBO    =      0    0=normal 1=particle mesh
   IRESTART =      0    0=no restart 2=restart with 2 vectors
   NREBOOT  =      0    no. of reboots
   NMIN     =      0    reboot dimension
   EREF     =   0.00    reference energy to select bands
   IMIX   =      4    mixing-type and parameters
     AMIX     =   0.40;   BMIX     =  1.00
     AMIX_MAG =   1.60;   BMIX_MAG =  1.00
     AMIN     =   0.10
     WC   =   100.;   INIMIX=   1;  MIXPRE=   1;  MAXMIX= -45

 Intra band minimization:
   WEIMIN = 0.0000     energy-eigenvalue tresh-hold
   EBREAK =  0.60E-08  absolut break condition
   DEPER  =   0.30     relativ break condition  

   TIME   =   0.40     timestep for ELM

  volume/ion in A,a.u.               =      93.50       630.95
  Fermi-wavevector in a.u.,A,eV,Ry     =   0.681673  1.288174  6.322320  0.464677
  Thomas-Fermi vector in A             =   1.760523
 
 Write flags
   LWAVE        =      F    write WAVECAR
   LDOWNSAMPLE  =      F    k-point downsampling of WAVECAR
   LCHARG       =      F    write CHGCAR
   LVTOT        =      F    write LOCPOT, total local potential
   LVHAR        =      F    write LOCPOT, Hartree potential only
   WRT_POTENTIAL= false  ! write potential to hdf5 file
   LELF         =      F    write electronic localiz. function (ELF)
   LORBIT       =      0    0 simple, 1 ext, 2 COOP (PROOUT), +10 PAW based schemes


 Python interface
   PLUGINS active      =      F    recompile with -DPLUGINS to activate
 
 Dipole corrections
   LMONO      =      F    monopole corrections only (constant potential shift)
   LDIPOL     =      F    correct potential (dipole corrections)
   IDIPOL     =      0    1-x, 2-y, 3-z, 4-all directions 
   EPSILON    =  1.0000000 bulk dielectric constant
   LVACPOTAV  =      F  vacuum potentials using an averaging scheme for the charge density
   VACPOTFLAT =  0.1000000 required flatness to determine vacuum potential
 
Coulomb truncation method
  LTRUNCATE          =      F  Coulomb kernel truncation to be used

 
 Exchange correlation treatment:
   GGA     = PE    functional components
   XC_C    = 1    coefficients multiplying the functional components
   LIBXC   =     F    Libxc                    
   VOSKOWN =     0    Vosko Wilk Nusair interpolation
   LHFCALC =     F    Hartree Fock is set to
   LHFONE  =     F    Hartree Fock one center treatment
   AEXX    =    0.0000 exact exchange contribution

 Parameters of functionals:
   PE:
     No parameter
 
 Van der Waals corrections
   IVDW    =     0    specifies the selected vdW correction

 Linear response parameters
   LEPSILON=     F    determine dielectric tensor
   LRPA    =     F    only Hartree local field effects (RPA)
   LNABLA  =     F    use nabla operator in PAW spheres
   LVEL    =     F    velocity operator in full k-point grid
   CSHIFT  =0.1000    complex shift for real part using Kramers Kronig
   OMEGAMAX=  -1.0    maximum frequency
   DEG_THRESHOLD= 0.2000000E-02 threshold for treating states as degnerate
   RTIME   =   -0.100 relaxation time in fs
  (WPLASMAI=    0.000 imaginary part of plasma frequency in eV, 0.658/RTIME)
   DFIELD  = 0.0000000 0.0000000 0.0000000 field for delta impulse in time
 
  Optional k-point grid parameters
   LKPOINTS_OPT  =     F    use optional k-point grid
   KPOINTS_OPT_MODE=     1    mode for optional k-point grid
 
 Orbital magnetization related:
   ORBITALMAG=     F  switch on orbital magnetization
   LCHIMAG   =     F  perturbation theory with respect to B field
   DQ        =  0.001000  dq finite difference perturbation B field
   LLRAUG    =     F  two centre corrections for induced B field
   LBONE     =     F  B-component reconstruction in AE one-centre
   LVGVCALC  =     T  calculate vGv susceptibility
   LVGVAPPL  =     F  apply vGv susceptibility instead of pGv for G=0

 Random number generation:
   RANDOM_GENERATOR = DEFAULT
   PCG_SEED         = not used


--------------------------------------------------------------------------------------------------------


 Static calculation
 charge density and potential will be updated during run
 spin polarized calculation
 Variant of blocked Davidson
 Davidson routine will perform the subspace rotation
 perform sub-space diagonalisation
    after iterative eigenvector-optimisation
 modified Broyden-mixing scheme, WC =      100.0
 initial mixing is a Kerker type mixing with AMIX =  0.4000 and BMIX =      1.0000
 Hartree-type preconditioning will be used
 using additional bands           15
 reciprocal scheme for non local part
 use partial core corrections
 calculate Harris-corrections to forces 
   (improved forces if not selfconsistent)
 use gradient corrections 
 use of overlap-Matrix (Vanderbilt PP)
 Gauss-broadening in eV      SIGMA  =   0.05


--------------------------------------------------------------------------------------------------------


  energy-cutoff  :      520.00
  volume of cell :      747.98
      direct lattice vectors                 reciprocal lattice vectors
     6.154088000 -0.002745000  0.000611000     0.162535521  0.093943719 -0.000034071
    -3.079421000  5.327821000  0.000675000     0.000083745  0.187742402 -0.000035214
     0.002310000  0.004279000 22.818631000    -0.000004355 -0.000008069  0.043823840

  length of vectors
     6.154088643  6.153739575 22.818631518     0.187731774  0.187742424  0.043823841


 
 k-points in units of 2pi/SCALE and weight: Automatic mesh                          
   0.00813069  0.01408380  0.00273553       0.003
   0.02438424  0.02347817  0.00273212       0.003
   0.04063780  0.03287255  0.00272871       0.003
   0.05689135  0.04226692  0.00272530       0.003
   0.07314490  0.05166129  0.00272190       0.003
  -0.07313707 -0.03288806  0.00275256       0.003
  -0.05688352 -0.02349369  0.00274915       0.003
  -0.04062997 -0.01409931  0.00274575       0.003
  -0.02437641 -0.00470494  0.00274234       0.003
  -0.00812286  0.00468943  0.00273893       0.003
   0.00813907  0.03285804  0.00273200       0.003
   0.02439262  0.04225241  0.00272860       0.003
   0.04064617  0.05164679  0.00272519       0.003
   0.05689972  0.06104116  0.00272178       0.003
   0.07315327  0.07043553  0.00271838       0.003
  -0.07312869 -0.01411382  0.00274904       0.003
  -0.05687514 -0.00471945  0.00274563       0.003
  -0.04062159  0.00467493  0.00274223       0.003
  -0.02436804  0.01406930  0.00273882       0.003
  -0.00811449  0.02346367  0.00273541       0.003
   0.00814744  0.05163228  0.00272848       0.003
   0.02440099  0.06102665  0.00272508       0.003
   0.04065454  0.07042103  0.00272167       0.003
   0.05690810  0.07981540  0.00271826       0.003
   0.07316165  0.08920977  0.00271485       0.003
  -0.07312032  0.00466042  0.00274552       0.003
  -0.05686677  0.01405479  0.00274211       0.003
  -0.04061322  0.02344917  0.00273870       0.003
  -0.02435966  0.03284354  0.00273530       0.003
  -0.00810611  0.04223791  0.00273189       0.003
   0.00815581  0.07040652  0.00272496       0.003
   0.02440937  0.07980089  0.00272155       0.003
   0.04066292  0.08919527  0.00271815       0.003
   0.05691647  0.09858964  0.00271474       0.003
   0.07317002  0.10798401  0.00271133       0.003
  -0.07311195  0.02343466  0.00274200       0.003
  -0.05685839  0.03282903  0.00273859       0.003
  -0.04060484  0.04222341  0.00273518       0.003
  -0.02435129  0.05161778  0.00273178       0.003
  -0.00809774  0.06101215  0.00272837       0.003
   0.00816419  0.08918076  0.00272144       0.003
   0.02441774  0.09857513  0.00271803       0.003
   0.04067129  0.10796951  0.00271463       0.003
   0.05692485  0.11736388  0.00271122       0.003
   0.07317840  0.12675825  0.00270781       0.003
  -0.07310357  0.04220890  0.00273848       0.003
  -0.05685002  0.05160327  0.00273507       0.003
  -0.04059647  0.06099765  0.00273166       0.003
  -0.02434291  0.07039202  0.00272825       0.003
  -0.00808936  0.07978639  0.00272485       0.003
   0.00808882 -0.07978740  0.00275313       0.003
   0.02434237 -0.07039303  0.00274973       0.003
   0.04059592 -0.06099866  0.00274632       0.003
   0.05684947 -0.05160428  0.00274291       0.003
   0.07310303 -0.04220991  0.00273950       0.003
  -0.07317894 -0.12675926  0.00277017       0.003
  -0.05692539 -0.11736489  0.00276676       0.003
  -0.04067184 -0.10797051  0.00276335       0.003
  -0.02441829 -0.09857614  0.00275995       0.003
  -0.00816473 -0.08918177  0.00275654       0.003
   0.00809719 -0.06101316  0.00274961       0.003
   0.02435075 -0.05161879  0.00274620       0.003
   0.04060430 -0.04222442  0.00274280       0.003
   0.05685785 -0.03283004  0.00273939       0.003
   0.07311140 -0.02343567  0.00273598       0.003
  -0.07317057 -0.10798502  0.00276665       0.003
  -0.05691702 -0.09859065  0.00276324       0.003
  -0.04066346 -0.08919627  0.00275983       0.003
  -0.02440991 -0.07980190  0.00275643       0.003
  -0.00815636 -0.07040753  0.00275302       0.003
   0.00810557 -0.04223892  0.00274609       0.003
   0.02435912 -0.03284455  0.00274268       0.003
   0.04061267 -0.02345018  0.00273928       0.003
   0.05686622 -0.01405580  0.00273587       0.003
   0.07311978 -0.00466143  0.00273246       0.003
  -0.07316219 -0.08921078  0.00276313       0.003
  -0.05690864 -0.07981641  0.00275972       0.003
  -0.04065509 -0.07042203  0.00275631       0.003
  -0.02440154 -0.06102766  0.00275290       0.003
  -0.00814798 -0.05163329  0.00274950       0.003
   0.00811394 -0.02346468  0.00274257       0.003
   0.02436749 -0.01407031  0.00273916       0.003
   0.04062105 -0.00467593  0.00273575       0.003
   0.05687460  0.00471844  0.00273235       0.003
   0.07312815  0.01411281  0.00272894       0.003
  -0.07315382 -0.07043654  0.00275960       0.003
  -0.05690027 -0.06104217  0.00275620       0.003
  -0.04064671 -0.05164779  0.00275279       0.003
  -0.02439316 -0.04225342  0.00274938       0.003
  -0.00813961 -0.03285905  0.00274598       0.003
   0.00812232 -0.00469044  0.00273905       0.003
   0.02437587  0.00470393  0.00273564       0.003
   0.04062942  0.01409831  0.00273223       0.003
   0.05688297  0.02349268  0.00272883       0.003
   0.07313652  0.03288705  0.00272542       0.003
  -0.07314544 -0.05166230  0.00275608       0.003
  -0.05689189 -0.04226793  0.00275268       0.003
  -0.04063834 -0.03287355  0.00274927       0.003
  -0.02438479 -0.02347918  0.00274586       0.003
  -0.00813124 -0.01408481  0.00274245       0.003
   0.00813015  0.01408279  0.00821351       0.003
   0.02438370  0.02347716  0.00821010       0.003
   0.04063725  0.03287154  0.00820669       0.003
   0.05689080  0.04226591  0.00820328       0.003
   0.07314435  0.05166028  0.00819988       0.003
  -0.07313761 -0.03288907  0.00823054       0.003
  -0.05688406 -0.02349469  0.00822713       0.003
  -0.04063051 -0.01410032  0.00822373       0.003
  -0.02437696 -0.00470595  0.00822032       0.003
  -0.00812341  0.00468842  0.00821691       0.003
   0.00813852  0.03285703  0.00820998       0.003
   0.02439207  0.04225141  0.00820658       0.003
   0.04064563  0.05164578  0.00820317       0.003
   0.05689918  0.06104015  0.00819976       0.003
   0.07315273  0.07043452  0.00819636       0.003
  -0.07312924 -0.01411483  0.00822702       0.003
  -0.05687569 -0.00472045  0.00822361       0.003
  -0.04062213  0.00467392  0.00822021       0.003
  -0.02436858  0.01406829  0.00821680       0.003
  -0.00811503  0.02346266  0.00821339       0.003
   0.00814690  0.05163127  0.00820646       0.003
   0.02440045  0.06102565  0.00820306       0.003
   0.04065400  0.07042002  0.00819965       0.003
   0.05690755  0.07981439  0.00819624       0.003
   0.07316110  0.08920876  0.00819283       0.003
  -0.07312086  0.00465941  0.00822350       0.003
  -0.05686731  0.01405379  0.00822009       0.003
  -0.04061376  0.02344816  0.00821668       0.003
  -0.02436021  0.03284253  0.00821328       0.003
  -0.00810666  0.04223690  0.00820987       0.003
   0.00815527  0.07040551  0.00820294       0.003
   0.02440882  0.07979989  0.00819953       0.003
   0.04066237  0.08919426  0.00819613       0.003
   0.05691593  0.09858863  0.00819272       0.003
   0.07316948  0.10798300  0.00818931       0.003
  -0.07311249  0.02343365  0.00821998       0.003
  -0.05685894  0.03282803  0.00821657       0.003
  -0.04060539  0.04222240  0.00821316       0.003
  -0.02435183  0.05161677  0.00820976       0.003
  -0.00809828  0.06101114  0.00820635       0.003
   0.00816364  0.08917975  0.00819942       0.003
   0.02441720  0.09857413  0.00819601       0.003
   0.04067075  0.10796850  0.00819261       0.003
   0.05692430  0.11736287  0.00818920       0.003
   0.07317785  0.12675724  0.00818579       0.003
  -0.07310412  0.04220789  0.00821646       0.003
  -0.05685056  0.05160227  0.00821305       0.003
  -0.04059701  0.06099664  0.00820964       0.003
  -0.02434346  0.07039101  0.00820623       0.003
  -0.00808991  0.07978538  0.00820283       0.003
   0.00808827 -0.07978841  0.00823111       0.003
   0.02434183 -0.07039404  0.00822771       0.003
   0.04059538 -0.06099966  0.00822430       0.003
   0.05684893 -0.05160529  0.00822089       0.003
   0.07310248 -0.04221092  0.00821748       0.003
  -0.07317949 -0.12676027  0.00824815       0.003
  -0.05692593 -0.11736590  0.00824474       0.003
  -0.04067238 -0.10797152  0.00824133       0.003
  -0.02441883 -0.09857715  0.00823793       0.003
  -0.00816528 -0.08918278  0.00823452       0.003
   0.00809665 -0.06101417  0.00822759       0.003
   0.02435020 -0.05161980  0.00822418       0.003
   0.04060375 -0.04222542  0.00822078       0.003
   0.05685730 -0.03283105  0.00821737       0.003
   0.07311086 -0.02343668  0.00821396       0.003
  -0.07317111 -0.10798603  0.00824463       0.003
  -0.05691756 -0.09859166  0.00824122       0.003
  -0.04066401 -0.08919728  0.00823781       0.003
  -0.02441046 -0.07980291  0.00823441       0.003
  -0.00815690 -0.07040854  0.00823100       0.003
   0.00810502 -0.04223993  0.00822407       0.003
   0.02435858 -0.03284556  0.00822066       0.003
   0.04061213 -0.02345118  0.00821726       0.003
   0.05686568 -0.01405681  0.00821385       0.003
   0.07311923 -0.00466244  0.00821044       0.003
  -0.07316274 -0.08921179  0.00824111       0.003
  -0.05690918 -0.07981741  0.00823770       0.003
  -0.04065563 -0.07042304  0.00823429       0.003
  -0.02440208 -0.06102867  0.00823088       0.003
  -0.00814853 -0.05163430  0.00822748       0.003
   0.00811340 -0.02346569  0.00822055       0.003
   0.02436695 -0.01407132  0.00821714       0.003
   0.04062050 -0.00467694  0.00821373       0.003
   0.05687405  0.00471743  0.00821033       0.003
   0.07312761  0.01411180  0.00820692       0.003
  -0.07315436 -0.07043755  0.00823758       0.003
  -0.05690081 -0.06104317  0.00823418       0.003
  -0.04064726 -0.05164880  0.00823077       0.003
  -0.02439371 -0.04225443  0.00822736       0.003
  -0.00814015 -0.03286006  0.00822396       0.003
   0.00812177 -0.00469145  0.00821703       0.003
   0.02437532  0.00470292  0.00821362       0.003
   0.04062888  0.01409730  0.00821021       0.003
   0.05688243  0.02349167  0.00820681       0.003
   0.07313598  0.03288604  0.00820340       0.003
  -0.07314599 -0.05166331  0.00823406       0.003
  -0.05689244 -0.04226893  0.00823066       0.003
  -0.04063888 -0.03287456  0.00822725       0.003
  -0.02438533 -0.02348019  0.00822384       0.003
  -0.00813178 -0.01408582  0.00822043       0.003
   0.00812960  0.01408178  0.01369149       0.003
   0.02438315  0.02347616  0.01368808       0.003
   0.04063671  0.03287053  0.01368467       0.003
   0.05689026  0.04226490  0.01368126       0.003
   0.07314381  0.05165927  0.01367786       0.003
  -0.07313816 -0.03289007  0.01370852       0.003
  -0.05688461 -0.02349570  0.01370511       0.003
  -0.04063105 -0.01410133  0.01370171       0.003
  -0.02437750 -0.00470696  0.01369830       0.003
  -0.00812395  0.00468741  0.01369489       0.003
   0.00813798  0.03285602  0.01368796       0.003
   0.02439153  0.04225040  0.01368456       0.003
   0.04064508  0.05164477  0.01368115       0.003
   0.05689863  0.06103914  0.01367774       0.003
   0.07315219  0.07043351  0.01367434       0.003
  -0.07312978 -0.01411583  0.01370500       0.003
  -0.05687623 -0.00472146  0.01370159       0.003
  -0.04062268  0.00467291  0.01369819       0.003
  -0.02436913  0.01406728  0.01369478       0.003
  -0.00811558  0.02346165  0.01369137       0.003
   0.00814635  0.05163026  0.01368444       0.003
   0.02439990  0.06102464  0.01368104       0.003
   0.04065346  0.07041901  0.01367763       0.003
   0.05690701  0.07981338  0.01367422       0.003
   0.07316056  0.08920775  0.01367081       0.003
  -0.07312141  0.00465841  0.01370148       0.003
  -0.05686786  0.01405278  0.01369807       0.003
  -0.04061430  0.02344715  0.01369466       0.003
  -0.02436075  0.03284152  0.01369126       0.003
  -0.00810720  0.04223589  0.01368785       0.003
   0.00815473  0.07040450  0.01368092       0.003
   0.02440828  0.07979888  0.01367751       0.003
   0.04066183  0.08919325  0.01367411       0.003
   0.05691538  0.09858762  0.01367070       0.003
   0.07316893  0.10798199  0.01366729       0.003
  -0.07311303  0.02343265  0.01369796       0.003
  -0.05685948  0.03282702  0.01369455       0.003
  -0.04060593  0.04222139  0.01369114       0.003
  -0.02435238  0.05161576  0.01368774       0.003
  -0.00809883  0.06101013  0.01368433       0.003
   0.00816310  0.08917875  0.01367740       0.003
   0.02441665  0.09857312  0.01367399       0.003
   0.04067020  0.10796749  0.01367059       0.003
   0.05692376  0.11736186  0.01366718       0.003
   0.07317731  0.12675623  0.01366377       0.003
  -0.07310466  0.04220689  0.01369444       0.003
  -0.05685111  0.05160126  0.01369103       0.003
  -0.04059756  0.06099563  0.01368762       0.003
  -0.02434400  0.07039000  0.01368421       0.003
  -0.00809045  0.07978437  0.01368081       0.003
   0.00808773 -0.07978942  0.01370909       0.003
   0.02434128 -0.07039504  0.01370569       0.003
   0.04059483 -0.06100067  0.01370228       0.003
   0.05684839 -0.05160630  0.01369887       0.003
   0.07310194 -0.04221193  0.01369546       0.003
  -0.07318003 -0.12676128  0.01372613       0.003
  -0.05692648 -0.11736690  0.01372272       0.003
  -0.04067293 -0.10797253  0.01371931       0.003
  -0.02441937 -0.09857816  0.01371591       0.003
  -0.00816582 -0.08918379  0.01371250       0.003
   0.00809610 -0.06101518  0.01370557       0.003
   0.02434966 -0.05162080  0.01370216       0.003
   0.04060321 -0.04222643  0.01369876       0.003
   0.05685676 -0.03283206  0.01369535       0.003
   0.07311031 -0.02343769  0.01369194       0.003
  -0.07317166 -0.10798704  0.01372261       0.003
  -0.05691810 -0.09859266  0.01371920       0.003
  -0.04066455 -0.08919829  0.01371579       0.003
  -0.02441100 -0.07980392  0.01371239       0.003
  -0.00815745 -0.07040955  0.01370898       0.003
   0.00810448 -0.04224094  0.01370205       0.003
   0.02435803 -0.03284656  0.01369864       0.003
   0.04061158 -0.02345219  0.01369524       0.003
   0.05686514 -0.01405782  0.01369183       0.003
   0.07311869 -0.00466345  0.01368842       0.003
  -0.07316328 -0.08921280  0.01371909       0.003
  -0.05690973 -0.07981842  0.01371568       0.003
  -0.04065618 -0.07042405  0.01371227       0.003
  -0.02440263 -0.06102968  0.01370886       0.003
[...]
 k-point    85 :   0.4500-0.1500 0.0625  plane waves:   20122
 k-point    86 :  -0.4500-0.1500 0.0625  plane waves:   20100
 k-point    87 :  -0.3500-0.1500 0.0625  plane waves:   20131
 k-point    88 :  -0.2500-0.1500 0.0625  plane waves:   20139
 k-point    89 :  -0.1500-0.1500 0.0625  plane waves:   20149
 k-point    90 :  -0.0500-0.1500 0.0625  plane waves:   20187
 k-point    91 :   0.0500-0.0500 0.0625  plane waves:   20176
 k-point    92 :   0.1500-0.0500 0.0625  plane waves:   20168
 k-point    93 :   0.2500-0.0500 0.0625  plane waves:   20181
 k-point    94 :   0.3500-0.0500 0.0625  plane waves:   20152
 k-point    95 :   0.4500-0.0500 0.0625  plane waves:   20118
 k-point    96 :  -0.4500-0.0500 0.0625  plane waves:   20119
 k-point    97 :  -0.3500-0.0500 0.0625  plane waves:   20142
 k-point    98 :  -0.2500-0.0500 0.0625  plane waves:   20164
 k-point    99 :  -0.1500-0.0500 0.0625  plane waves:   20186
 k-point   100 :  -0.0500-0.0500 0.0625  plane waves:   20160
 k-point   101 :   0.0500 0.0500 0.1875  plane waves:   20182
 k-point   102 :   0.1500 0.0500 0.1875  plane waves:   20190
 k-point   103 :   0.2500 0.0500 0.1875  plane waves:   20165
 k-point   104 :   0.3500 0.0500 0.1875  plane waves:   20135
 k-point   105 :   0.4500 0.0500 0.1875  plane waves:   20106
 k-point   106 :  -0.4500 0.0500 0.1875  plane waves:   20114
 k-point   107 :  -0.3500 0.0500 0.1875  plane waves:   20146
 k-point   108 :  -0.2500 0.0500 0.1875  plane waves:   20172
 k-point   109 :  -0.1500 0.0500 0.1875  plane waves:   20182
 k-point   110 :  -0.0500 0.0500 0.1875  plane waves:   20194
 k-point   111 :   0.0500 0.1500 0.1875  plane waves:   20190
 k-point   112 :   0.1500 0.1500 0.1875  plane waves:   20154
 k-point   113 :   0.2500 0.1500 0.1875  plane waves:   20146
 k-point   114 :   0.3500 0.1500 0.1875  plane waves:   20118
 k-point   115 :   0.4500 0.1500 0.1875  plane waves:   20106
 k-point   116 :  -0.4500 0.1500 0.1875  plane waves:   20133
 k-point   117 :  -0.3500 0.1500 0.1875  plane waves:   20154
 k-point   118 :  -0.2500 0.1500 0.1875  plane waves:   20177
 k-point   119 :  -0.1500 0.1500 0.1875  plane waves:   20180
 k-point   120 :  -0.0500 0.1500 0.1875  plane waves:   20182
 k-point   121 :   0.0500 0.2500 0.1875  plane waves:   20163
 k-point   122 :   0.1500 0.2500 0.1875  plane waves:   20144
 k-point   123 :   0.2500 0.2500 0.1875  plane waves:   20106
 k-point   124 :   0.3500 0.2500 0.1875  plane waves:   20110
 k-point   125 :   0.4500 0.2500 0.1875  plane waves:   20118
 k-point   126 :  -0.4500 0.2500 0.1875  plane waves:   20122
 k-point   127 :  -0.3500 0.2500 0.1875  plane waves:   20164
 k-point   128 :  -0.2500 0.2500 0.1875  plane waves:   20176
 k-point   129 :  -0.1500 0.2500 0.1875  plane waves:   20177
 k-point   130 :  -0.0500 0.2500 0.1875  plane waves:   20174
 k-point   131 :   0.0500 0.3500 0.1875  plane waves:   20135
 k-point   132 :   0.1500 0.3500 0.1875  plane waves:   20117
 k-point   133 :   0.2500 0.3500 0.1875  plane waves:   20108
 k-point   134 :   0.3500 0.3500 0.1875  plane waves:   20130
 k-point   135 :   0.4500 0.3500 0.1875  plane waves:   20105
 k-point   136 :  -0.4500 0.3500 0.1875  plane waves:   20131
 k-point   137 :  -0.3500 0.3500 0.1875  plane waves:   20137
 k-point   138 :  -0.2500 0.3500 0.1875  plane waves:   20163
 k-point   139 :  -0.1500 0.3500 0.1875  plane waves:   20157
 k-point   140 :  -0.0500 0.3500 0.1875  plane waves:   20147
 k-point   141 :   0.0500 0.4500 0.1875  plane waves:   20107
 k-point   142 :   0.1500 0.4500 0.1875  plane waves:   20107
 k-point   143 :   0.2500 0.4500 0.1875  plane waves:   20118
 k-point   144 :   0.3500 0.4500 0.1875  plane waves:   20104
 k-point   145 :   0.4500 0.4500 0.1875  plane waves:   20099
 k-point   146 :  -0.4500 0.4500 0.1875  plane waves:   20112
 k-point   147 :  -0.3500 0.4500 0.1875  plane waves:   20129
 k-point   148 :  -0.2500 0.4500 0.1875  plane waves:   20127
 k-point   149 :  -0.1500 0.4500 0.1875  plane waves:   20129
 k-point   150 :  -0.0500 0.4500 0.1875  plane waves:   20112
 k-point   151 :   0.0500-0.4500 0.1875  plane waves:   20115
 k-point   152 :   0.1500-0.4500 0.1875  plane waves:   20134
 k-point   153 :   0.2500-0.4500 0.1875  plane waves:   20122
 k-point   154 :   0.3500-0.4500 0.1875  plane waves:   20131
 k-point   155 :   0.4500-0.4500 0.1875  plane waves:   20110
 k-point   156 :  -0.4500-0.4500 0.1875  plane waves:   20101
 k-point   157 :  -0.3500-0.4500 0.1875  plane waves:   20102
 k-point   158 :  -0.2500-0.4500 0.1875  plane waves:   20115
 k-point   159 :  -0.1500-0.4500 0.1875  plane waves:   20105
 k-point   160 :  -0.0500-0.4500 0.1875  plane waves:   20106
 k-point   161 :   0.0500-0.3500 0.1875  plane waves:   20146
 k-point   162 :   0.1500-0.3500 0.1875  plane waves:   20154
 k-point   163 :   0.2500-0.3500 0.1875  plane waves:   20162
 k-point   164 :   0.3500-0.3500 0.1875  plane waves:   20137
 k-point   165 :   0.4500-0.3500 0.1875  plane waves:   20132
 k-point   166 :  -0.4500-0.3500 0.1875  plane waves:   20104
 k-point   167 :  -0.3500-0.3500 0.1875  plane waves:   20122
 k-point   168 :  -0.2500-0.3500 0.1875  plane waves:   20105
 k-point   169 :  -0.1500-0.3500 0.1875  plane waves:   20117
 k-point   170 :  -0.0500-0.3500 0.1875  plane waves:   20131
 k-point   171 :   0.0500-0.2500 0.1875  plane waves:   20173
 k-point   172 :   0.1500-0.2500 0.1875  plane waves:   20177
 k-point   173 :   0.2500-0.2500 0.1875  plane waves:   20176
 k-point   174 :   0.3500-0.2500 0.1875  plane waves:   20162
 k-point   175 :   0.4500-0.2500 0.1875  plane waves:   20126
 k-point   176 :  -0.4500-0.2500 0.1875  plane waves:   20116
 k-point   177 :  -0.3500-0.2500 0.1875  plane waves:   20105
 k-point   178 :  -0.2500-0.2500 0.1875  plane waves:   20105
 k-point   179 :  -0.1500-0.2500 0.1875  plane waves:   20147
 k-point   180 :  -0.0500-0.2500 0.1875  plane waves:   20163
 k-point   181 :   0.0500-0.1500 0.1875  plane waves:   20184
 k-point   182 :   0.1500-0.1500 0.1875  plane waves:   20180
 k-point   183 :   0.2500-0.1500 0.1875  plane waves:   20176
 k-point   184 :   0.3500-0.1500 0.1875  plane waves:   20156
 k-point   185 :   0.4500-0.1500 0.1875  plane waves:   20127
 k-point   186 :  -0.4500-0.1500 0.1875  plane waves:   20105
 k-point   187 :  -0.3500-0.1500 0.1875  plane waves:   20116
 k-point   188 :  -0.2500-0.1500 0.1875  plane waves:   20147
 k-point   189 :  -0.1500-0.1500 0.1875  plane waves:   20147
 k-point   190 :  -0.0500-0.1500 0.1875  plane waves:   20187
 k-point   191 :   0.0500-0.0500 0.1875  plane waves:   20198
 k-point   192 :   0.1500-0.0500 0.1875  plane waves:   20183
 k-point   193 :   0.2500-0.0500 0.1875  plane waves:   20174
 k-point   194 :   0.3500-0.0500 0.1875  plane waves:   20145
 k-point   195 :   0.4500-0.0500 0.1875  plane waves:   20112
 k-point   196 :  -0.4500-0.0500 0.1875  plane waves:   20107
 k-point   197 :  -0.3500-0.0500 0.1875  plane waves:   20131
 k-point   198 :  -0.2500-0.0500 0.1875  plane waves:   20164
 k-point   199 :  -0.1500-0.0500 0.1875  plane waves:   20186
 k-point   200 :  -0.0500-0.0500 0.1875  plane waves:   20174
 k-point   201 :   0.0500 0.0500 0.3125  plane waves:   20185
 k-point   202 :   0.1500 0.0500 0.3125  plane waves:   20180
 k-point   203 :   0.2500 0.0500 0.3125  plane waves:   20159
 k-point   204 :   0.3500 0.0500 0.3125  plane waves:   20129
 k-point   205 :   0.4500 0.0500 0.3125  plane waves:   20113
 k-point   206 :  -0.4500 0.0500 0.3125  plane waves:   20111
 k-point   207 :  -0.3500 0.0500 0.3125  plane waves:   20150
 k-point   208 :  -0.2500 0.0500 0.3125  plane waves:   20164
 k-point   209 :  -0.1500 0.0500 0.3125  plane waves:   20182
 k-point   210 :  -0.0500 0.0500 0.3125  plane waves:   20202
 k-point   211 :   0.0500 0.1500 0.3125  plane waves:   20178
 k-point   212 :   0.1500 0.1500 0.3125  plane waves:   20153
 k-point   213 :   0.2500 0.1500 0.3125  plane waves:   20150
 k-point   214 :   0.3500 0.1500 0.3125  plane waves:   20119
 k-point   215 :   0.4500 0.1500 0.3125  plane waves:   20114
 k-point   216 :  -0.4500 0.1500 0.3125  plane waves:   20125
 k-point   217 :  -0.3500 0.1500 0.3125  plane waves:   20156
 k-point   218 :  -0.2500 0.1500 0.3125  plane waves:   20169
 k-point   219 :  -0.1500 0.1500 0.3125  plane waves:   20180
 k-point   220 :  -0.0500 0.1500 0.3125  plane waves:   20183
 k-point   221 :   0.0500 0.2500 0.3125  plane waves:   20158
 k-point   222 :   0.1500 0.2500 0.3125  plane waves:   20151
 k-point   223 :   0.2500 0.2500 0.3125  plane waves:   20110
 k-point   224 :   0.3500 0.2500 0.3125  plane waves:   20106
 k-point   225 :   0.4500 0.2500 0.3125  plane waves:   20099
 k-point   226 :  -0.4500 0.2500 0.3125  plane waves:   20134
 k-point   227 :  -0.3500 0.2500 0.3125  plane waves:   20159
 k-point   228 :  -0.2500 0.2500 0.3125  plane waves:   20165
 k-point   229 :  -0.1500 0.2500 0.3125  plane waves:   20171
 k-point   230 :  -0.0500 0.2500 0.3125  plane waves:   20162
 k-point   231 :   0.0500 0.3500 0.3125  plane waves:   20127
 k-point   232 :   0.1500 0.3500 0.3125  plane waves:   20121
 k-point   233 :   0.2500 0.3500 0.3125  plane waves:   20106
 k-point   234 :   0.3500 0.3500 0.3125  plane waves:   20127
 k-point   235 :   0.4500 0.3500 0.3125  plane waves:   20104
 k-point   236 :  -0.4500 0.3500 0.3125  plane waves:   20109
 k-point   237 :  -0.3500 0.3500 0.3125  plane waves:   20142
 k-point   238 :  -0.2500 0.3500 0.3125  plane waves:   20161
 k-point   239 :  -0.1500 0.3500 0.3125  plane waves:   20157
 k-point   240 :  -0.0500 0.3500 0.3125  plane waves:   20152
 k-point   241 :   0.0500 0.4500 0.3125  plane waves:   20112
 k-point   242 :   0.1500 0.4500 0.3125  plane waves:   20114
 k-point   243 :   0.2500 0.4500 0.3125  plane waves:   20101
 k-point   244 :   0.3500 0.4500 0.3125  plane waves:   20104
 k-point   245 :   0.4500 0.4500 0.3125  plane waves:   20087
 k-point   246 :  -0.4500 0.4500 0.3125  plane waves:   20119
 k-point   247 :  -0.3500 0.4500 0.3125  plane waves:   20109
 k-point   248 :  -0.2500 0.4500 0.3125  plane waves:   20142
 k-point   249 :  -0.1500 0.4500 0.3125  plane waves:   20123
 k-point   250 :  -0.0500 0.4500 0.3125  plane waves:   20116
 k-point   251 :   0.0500-0.4500 0.3125  plane waves:   20112
 k-point   252 :   0.1500-0.4500 0.3125  plane waves:   20126
 k-point   253 :   0.2500-0.4500 0.3125  plane waves:   20136
 k-point   254 :   0.3500-0.4500 0.3125  plane waves:   20109
 k-point   255 :   0.4500-0.4500 0.3125  plane waves:   20120
 k-point   256 :  -0.4500-0.4500 0.3125  plane waves:   20093
 k-point   257 :  -0.3500-0.4500 0.3125  plane waves:   20105
 k-point   258 :  -0.2500-0.4500 0.3125  plane waves:   20098
 k-point   259 :  -0.1500-0.4500 0.3125  plane waves:   20109
 k-point   260 :  -0.0500-0.4500 0.3125  plane waves:   20113
 k-point   261 :   0.0500-0.3500 0.3125  plane waves:   20151
 k-point   262 :   0.1500-0.3500 0.3125  plane waves:   20155
 k-point   263 :   0.2500-0.3500 0.3125  plane waves:   20159
 k-point   264 :   0.3500-0.3500 0.3125  plane waves:   20141
 k-point   265 :   0.4500-0.3500 0.3125  plane waves:   20109
 k-point   266 :  -0.4500-0.3500 0.3125  plane waves:   20104
 k-point   267 :  -0.3500-0.3500 0.3125  plane waves:   20129
 k-point   268 :  -0.2500-0.3500 0.3125  plane waves:   20106
 k-point   269 :  -0.1500-0.3500 0.3125  plane waves:   20119
 k-point   270 :  -0.0500-0.3500 0.3125  plane waves:   20126
 k-point   271 :   0.0500-0.2500 0.3125  plane waves:   20164
 k-point   272 :   0.1500-0.2500 0.3125  plane waves:   20172
 k-point   273 :   0.2500-0.2500 0.3125  plane waves:   20164
 k-point   274 :   0.3500-0.2500 0.3125  plane waves:   20162
 k-point   275 :   0.4500-0.2500 0.3125  plane waves:   20142
 k-point   276 :  -0.4500-0.2500 0.3125  plane waves:   20096
 k-point   277 :  -0.3500-0.2500 0.3125  plane waves:   20108
 k-point   278 :  -0.2500-0.2500 0.3125  plane waves:   20111
 k-point   279 :  -0.1500-0.2500 0.3125  plane waves:   20152
 k-point   280 :  -0.0500-0.2500 0.3125  plane waves:   20157
 k-point   281 :   0.0500-0.1500 0.3125  plane waves:   20183
 k-point   282 :   0.1500-0.1500 0.3125  plane waves:   20179
 k-point   283 :   0.2500-0.1500 0.3125  plane waves:   20170
 k-point   284 :   0.3500-0.1500 0.3125  plane waves:   20157
 k-point   285 :   0.4500-0.1500 0.3125  plane waves:   20123
 k-point   286 :  -0.4500-0.1500 0.3125  plane waves:   20109
 k-point   287 :  -0.3500-0.1500 0.3125  plane waves:   20120
 k-point   288 :  -0.2500-0.1500 0.3125  plane waves:   20151
 k-point   289 :  -0.1500-0.1500 0.3125  plane waves:   20150
 k-point   290 :  -0.0500-0.1500 0.3125  plane waves:   20181
 k-point   291 :   0.0500-0.0500 0.3125  plane waves:   20204
 k-point   292 :   0.1500-0.0500 0.3125  plane waves:   20183
 k-point   293 :   0.2500-0.0500 0.3125  plane waves:   20163
 k-point   294 :   0.3500-0.0500 0.3125  plane waves:   20156
 k-point   295 :   0.4500-0.0500 0.3125  plane waves:   20115
 k-point   296 :  -0.4500-0.0500 0.3125  plane waves:   20112
 k-point   297 :  -0.3500-0.0500 0.3125  plane waves:   20123
 k-point   298 :  -0.2500-0.0500 0.3125  plane waves:   20158
 k-point   299 :  -0.1500-0.0500 0.3125  plane waves:   20181
 k-point   300 :  -0.0500-0.0500 0.3125  plane waves:   20193
 k-point   301 :   0.0500 0.0500 0.4375  plane waves:   20187
 k-point   302 :   0.1500 0.0500 0.4375  plane waves:   20174
 k-point   303 :   0.2500 0.0500 0.4375  plane waves:   20170
 k-point   304 :   0.3500 0.0500 0.4375  plane waves:   20109
 k-point   305 :   0.4500 0.0500 0.4375  plane waves:   20121
 k-point   306 :  -0.4500 0.0500 0.4375  plane waves:   20095
 k-point   307 :  -0.3500 0.0500 0.4375  plane waves:   20147
 k-point   308 :  -0.2500 0.0500 0.4375  plane waves:   20172
 k-point   309 :  -0.1500 0.0500 0.4375  plane waves:   20192
 k-point   310 :  -0.0500 0.0500 0.4375  plane waves:   20216
 k-point   311 :   0.0500 0.1500 0.4375  plane waves:   20173
 k-point   312 :   0.1500 0.1500 0.4375  plane waves:   20148
 k-point   313 :   0.2500 0.1500 0.4375  plane waves:   20143
 k-point   314 :   0.3500 0.1500 0.4375  plane waves:   20113
 k-point   315 :   0.4500 0.1500 0.4375  plane waves:   20115
 k-point   316 :  -0.4500 0.1500 0.4375  plane waves:   20125
 k-point   317 :  -0.3500 0.1500 0.4375  plane waves:   20151
 k-point   318 :  -0.2500 0.1500 0.4375  plane waves:   20172
 k-point   319 :  -0.1500 0.1500 0.4375  plane waves:   20176
 k-point   320 :  -0.0500 0.1500 0.4375  plane waves:   20190
 k-point   321 :   0.0500 0.2500 0.4375  plane waves:   20168
 k-point   322 :   0.1500 0.2500 0.4375  plane waves:   20144
 k-point   323 :   0.2500 0.2500 0.4375  plane waves:   20127
 k-point   324 :   0.3500 0.2500 0.4375  plane waves:   20109
 k-point   325 :   0.4500 0.2500 0.4375  plane waves:   20081
 k-point   326 :  -0.4500 0.2500 0.4375  plane waves:   20138
 k-point   327 :  -0.3500 0.2500 0.4375  plane waves:   20166
 k-point   328 :  -0.2500 0.2500 0.4375  plane waves:   20153
 k-point   329 :  -0.1500 0.2500 0.4375  plane waves:   20169
 k-point   330 :  -0.0500 0.2500 0.4375  plane waves:   20175
 k-point   331 :   0.0500 0.3500 0.4375  plane waves:   20108
 k-point   332 :   0.1500 0.3500 0.4375  plane waves:   20114
 k-point   333 :   0.2500 0.3500 0.4375  plane waves:   20109
 k-point   334 :   0.3500 0.3500 0.4375  plane waves:   20114
 k-point   335 :   0.4500 0.3500 0.4375  plane waves:   20110
 k-point   336 :  -0.4500 0.3500 0.4375  plane waves:   20110
 k-point   337 :  -0.3500 0.3500 0.4375  plane waves:   20125
 k-point   338 :  -0.2500 0.3500 0.4375  plane waves:   20166
 k-point   339 :  -0.1500 0.3500 0.4375  plane waves:   20154
 k-point   340 :  -0.0500 0.3500 0.4375  plane waves:   20150
 k-point   341 :   0.0500 0.4500 0.4375  plane waves:   20120
 k-point   342 :   0.1500 0.4500 0.4375  plane waves:   20115
 k-point   343 :   0.2500 0.4500 0.4375  plane waves:   20081
 k-point   344 :   0.3500 0.4500 0.4375  plane waves:   20110
 k-point   345 :   0.4500 0.4500 0.4375  plane waves:   20089
 k-point   346 :  -0.4500 0.4500 0.4375  plane waves:   20116
 k-point   347 :  -0.3500 0.4500 0.4375  plane waves:   20106
 k-point   348 :  -0.2500 0.4500 0.4375  plane waves:   20135
 k-point   349 :  -0.1500 0.4500 0.4375  plane waves:   20122
 k-point   350 :  -0.0500 0.4500 0.4375  plane waves:   20098
 k-point   351 :   0.0500-0.4500 0.4375  plane waves:   20096
 k-point   352 :   0.1500-0.4500 0.4375  plane waves:   20124
 k-point   353 :   0.2500-0.4500 0.4375  plane waves:   20136
 k-point   354 :   0.3500-0.4500 0.4375  plane waves:   20108
 k-point   355 :   0.4500-0.4500 0.4375  plane waves:   20116
 k-point   356 :  -0.4500-0.4500 0.4375  plane waves:   20092
 k-point   357 :  -0.3500-0.4500 0.4375  plane waves:   20108
 k-point   358 :  -0.2500-0.4500 0.4375  plane waves:   20083
 k-point   359 :  -0.1500-0.4500 0.4375  plane waves:   20116
 k-point   360 :  -0.0500-0.4500 0.4375  plane waves:   20119
 k-point   361 :   0.0500-0.3500 0.4375  plane waves:   20149
 k-point   362 :   0.1500-0.3500 0.4375  plane waves:   20153
 k-point   363 :   0.2500-0.3500 0.4375  plane waves:   20167
 k-point   364 :   0.3500-0.3500 0.4375  plane waves:   20123
 k-point   365 :   0.4500-0.3500 0.4375  plane waves:   20104
 k-point   366 :  -0.4500-0.3500 0.4375  plane waves:   20109
 k-point   367 :  -0.3500-0.3500 0.4375  plane waves:   20119
 k-point   368 :  -0.2500-0.3500 0.4375  plane waves:   20108
 k-point   369 :  -0.1500-0.3500 0.4375  plane waves:   20117
 k-point   370 :  -0.0500-0.3500 0.4375  plane waves:   20107
 k-point   371 :   0.0500-0.2500 0.4375  plane waves:   20172
 k-point   372 :   0.1500-0.2500 0.4375  plane waves:   20170
 k-point   373 :   0.2500-0.2500 0.4375  plane waves:   20155
 k-point   374 :   0.3500-0.2500 0.4375  plane waves:   20165
 k-point   375 :   0.4500-0.2500 0.4375  plane waves:   20136
 k-point   376 :  -0.4500-0.2500 0.4375  plane waves:   20084
 k-point   377 :  -0.3500-0.2500 0.4375  plane waves:   20111
 k-point   378 :  -0.2500-0.2500 0.4375  plane waves:   20122
 k-point   379 :  -0.1500-0.2500 0.4375  plane waves:   20142
 k-point   380 :  -0.0500-0.2500 0.4375  plane waves:   20169
 k-point   381 :   0.0500-0.1500 0.4375  plane waves:   20192
 k-point   382 :   0.1500-0.1500 0.4375  plane waves:   20177
 k-point   383 :   0.2500-0.1500 0.4375  plane waves:   20169
 k-point   384 :   0.3500-0.1500 0.4375  plane waves:   20154
 k-point   385 :   0.4500-0.1500 0.4375  plane waves:   20123
 k-point   386 :  -0.4500-0.1500 0.4375  plane waves:   20115
 k-point   387 :  -0.3500-0.1500 0.4375  plane waves:   20118
 k-point   388 :  -0.2500-0.1500 0.4375  plane waves:   20143
 k-point   389 :  -0.1500-0.1500 0.4375  plane waves:   20156
 k-point   390 :  -0.0500-0.1500 0.4375  plane waves:   20173
 k-point   391 :   0.0500-0.0500 0.4375  plane waves:   20216
 k-point   392 :   0.1500-0.0500 0.4375  plane waves:   20191
 k-point   393 :   0.2500-0.0500 0.4375  plane waves:   20175
 k-point   394 :   0.3500-0.0500 0.4375  plane waves:   20150
 k-point   395 :   0.4500-0.0500 0.4375  plane waves:   20095
 k-point   396 :  -0.4500-0.0500 0.4375  plane waves:   20118
 k-point   397 :  -0.3500-0.0500 0.4375  plane waves:   20107
 k-point   398 :  -0.2500-0.0500 0.4375  plane waves:   20169
 k-point   399 :  -0.1500-0.0500 0.4375  plane waves:   20173
 k-point   400 :  -0.0500-0.0500 0.4375  plane waves:   20184

 maximum and minimum number of plane-waves per node :     20216    20081

 maximum number of plane-waves:     20216
 maximum index in each direction: 
   IXMAX=   11   IYMAX=   11   IZMAX=   42
   IXMIN=  -11   IYMIN=  -11   IZMIN=  -42


 serial   3D FFT for wavefunctions
 parallel 3D FFT for charge:
    minimum data exchange during FFTs selected (reduces bandwidth)

