<?xml version="1.0" encoding="ISO-8859-1"?>
<modeling>
 <generator>
  <i name="program" type="string">vasp </i>
  <i name="version" type="string">6.5.1  </i>
  <i name="subversion" type="string">10Mar25 (build Apr 08 2025 20:07:02) complex                          parallel </i>
  <i name="platform" type="string">LinuxIFC </i>
  <i name="date" type="string">2025 06 10 </i>
  <i name="time" type="string">22:16:33 </i>
 </generator>
 <incar>
  <i type="string" name="SYSTEM">CrCl3 KPOINT Test</i>
  <i type="string" name="PREC">Accurate</i>
  <i type="int" name="ISPIN">     2</i>
  <i type="int" name="IBRION">    -1</i>
  <i name="EDIFF">      0.00000100</i>
  <i type="int" name="NSW">     0</i>
  <i name="ENCUT">    520.00000000</i>
  <v name="MAGMOM">      3.00000000      3.00000000      0.60000000      0.60000000      0.60000000      0.60000000      0.60000000      0.60000000</v>
  <i type="int" name="ISMEAR">     0</i>
  <i name="SIGMA">      0.05000000</i>
  <i type="logical" name="LWAVE"> F  </i>
  <i type="logical" name="LCHARG"> F  </i>
 </incar>
 <primitive_cell>
  <structure name="primitive_cell" >
   <crystal>
    <varray name="basis" >
     <v>       6.15408800      -0.00274500       0.00061100 </v>
     <v>      -3.07942100       5.32782100       0.00067500 </v>
     <v>       0.00231000       0.00427900      22.81863100 </v>
    </varray>
    <i name="volume">    747.98159913 </i>
    <varray name="rec_basis" >
     <v>       0.16253552       0.09394372      -0.00003407 </v>
     <v>       0.00008375       0.18774240      -0.00003521 </v>
     <v>      -0.00000435      -0.00000807       0.04382384 </v>
    </varray>
   </crystal>
   <varray name="positions" >
    <v>       0.66673659       0.33327152       0.50000103 </v>
    <v>       0.99993200       0.00005715       0.49999678 </v>
    <v>       0.33303677       0.02431524       0.55991412 </v>
    <v>       0.97615759       0.30949873       0.55971000 </v>
    <v>       0.69101020       0.66638828       0.55992133 </v>
    <v>       0.69052433       0.02381943       0.44029028 </v>
    <v>       0.33361264       0.30901660       0.44008514 </v>
    <v>       0.97565723       0.66696118       0.44007979 </v>
   </varray>
  </structure>
  <varray name="primitive_index" >
   <v type="int" >        1 </v>
   <v type="int" >        2 </v>
   <v type="int" >        3 </v>
   <v type="int" >        4 </v>
   <v type="int" >        5 </v>
   <v type="int" >        6 </v>
   <v type="int" >        7 </v>
   <v type="int" >        8 </v>
  </varray>
 </primitive_cell>
 <kpoints>
  <generation param="Monkhorst-Pack">
   <v type="int" name="divisions">       4        4        2 </v>
   <v name="usershift">      0.00000000       0.00000000       0.00000000 </v>
   <v name="genvec1">      0.25000000      -0.00000000      -0.00000000 </v>
   <v name="genvec2">     -0.00000000       0.25000000       0.00000000 </v>
   <v name="genvec3">      0.00000000      -0.00000000       0.50000000 </v>
   <v name="shift">      0.50000000       0.50000000       0.50000000 </v>
  </generation>
  <varray name="kpointlist" >
   <v>       0.12500000       0.12500000       0.25000000 </v>
   <v>       0.37500000       0.12500000       0.25000000 </v>
   <v>      -0.37500000       0.12500000       0.25000000 </v>
   <v>      -0.12500000       0.12500000       0.25000000 </v>
   <v>       0.12500000       0.37500000       0.25000000 </v>
   <v>       0.37500000       0.37500000       0.25000000 </v>
   <v>      -0.37500000       0.37500000       0.25000000 </v>
   <v>      -0.12500000       0.37500000       0.25000000 </v>
   <v>       0.12500000      -0.37500000       0.25000000 </v>
   <v>       0.37500000      -0.37500000       0.25000000 </v>
   <v>      -0.37500000      -0.37500000       0.25000000 </v>
   <v>      -0.12500000      -0.37500000       0.25000000 </v>
   <v>       0.12500000      -0.12500000       0.25000000 </v>
   <v>       0.37500000      -0.12500000       0.25000000 </v>
   <v>      -0.37500000      -0.12500000       0.25000000 </v>
   <v>      -0.12500000      -0.12500000       0.25000000 </v>
  </varray>
  <varray name="weights" >
   <v>       0.06250000 </v>
   <v>       0.06250000 </v>
   <v>       0.06250000 </v>
   <v>       0.06250000 </v>
   <v>       0.06250000 </v>
   <v>       0.06250000 </v>
   <v>       0.06250000 </v>
   <v>       0.06250000 </v>
   <v>       0.06250000 </v>
   <v>       0.06250000 </v>
   <v>       0.06250000 </v>
   <v>       0.06250000 </v>
   <v>       0.06250000 </v>
   <v>       0.06250000 </v>
   <v>       0.06250000 </v>
   <v>       0.06250000 </v>
  </varray>
 </kpoints>
 <parameters>
  <separator name="general" >
   <i type="string" name="SYSTEM">CrCl3 KPOINT Test</i>
   <i type="logical" name="LCOMPAT"> F  </i>
  </separator>
  <separator name="electronic" >
   <i type="string" name="PREC">accura</i>
   <i name="ENMAX">    520.00000000</i>
   <i name="ENAUG">    402.10800000</i>
   <i name="EDIFF">      0.00000100</i>
   <i type="int" name="IALGO">    38</i>
   <i type="int" name="IWAVPR">    10</i>
   <i type="int" name="NBANDS">    42</i>
   <i type="int" name="NBANDSLOW">    -1</i>
   <i type="int" name="NBANDSHIGH">    -1</i>
   <i name="NELECT">     54.00000000</i>
   <i type="int" name="TURBO">     0</i>
   <i type="int" name="IRESTART">     0</i>
   <i type="int" name="NREBOOT">     0</i>
   <i type="int" name="NMIN">     0</i>
   <i name="EREF">      0.00000000</i>
   <separator name="electronic smearing" >
    <i type="int" name="ISMEAR">     0</i>
    <i name="SIGMA">      0.05000000</i>
    <i name="KSPACING">      0.50000000</i>
    <i type="logical" name="KGAMMA"> T  </i>
    <i type="logical" name="KBLOWUP"> T  </i>
   </separator>
   <separator name="electronic projectors" >
    <i type="logical" name="LREAL"> F  </i>
    <v name="ROPT">      0.00000000      0.00000000</v>
    <i type="int" name="LMAXPAW">  -100</i>
    <i type="int" name="LMAXMIX">     2</i>
    <i type="logical" name="NLSPLINE"> F  </i>
   </separator>
   <separator name="electronic startup" >
    <i type="int" name="ISTART">     0</i>
    <i type="int" name="ICHARG">     2</i>
    <i type="int" name="INIWAV">     1</i>
   </separator>
   <separator name="electronic spin" >
    <i type="int" name="ISPIN">     2</i>
    <i type="logical" name="LNONCOLLINEAR"> F  </i>
    <v name="MAGMOM">      3.00000000      3.00000000      0.60000000      0.60000000      0.60000000      0.60000000      0.60000000      0.60000000</v>
    <i name="NUPDOWN">     -1.00000000</i>
    <i type="logical" name="LSORBIT"> F  </i>
    <v name="SAXIS">      0.00000000      0.00000000      1.00000000</v>
    <i type="logical" name="LSPIRAL"> F  </i>
    <v name="QSPIRAL">      0.00000000      0.00000000      0.00000000</v>
    <i type="logical" name="LZEROZ"> F  </i>
   </separator>
   <separator name="electronic exchange-correlation" >
    <i type="logical" name="LASPH"> F  </i>
   </separator>
   <separator name="electronic convergence" >
    <i type="int" name="NELM">    60</i>
    <i type="int" name="NELMDL">    -5</i>
    <i type="int" name="NELMIN">     2</i>
    <i name="ENINI">    520.00000000</i>
    <separator name="electronic convergence detail" >
     <i type="logical" name="LDIAG"> T  </i>
     <i type="logical" name="LSUBROT"> F  </i>
     <i type="logical" name="LROBUST"> F  </i>
     <i type="int" name="ISEARCH">     0</i>
     <i name="WEIMIN">      0.00000000</i>
     <i name="EBREAK">      0.00000001</i>
     <i name="DEPER">      0.30000000</i>
     <i type="int" name="NRMM">     4</i>
     <i name="TIME">      0.40000000</i>
    </separator>
   </separator>
   <separator name="electronic mixer" >
    <i name="AMIX">      0.40000000</i>
    <i name="BMIX">      1.00000000</i>
    <i name="AMIN">      0.10000000</i>
    <i name="AMIX_MAG">      1.60000000</i>
    <i name="BMIX_MAG">      1.00000000</i>
    <separator name="electronic mixer details" >
     <i type="int" name="IMIX">     4</i>
     <i type="logical" name="MIXFIRST"> F  </i>
     <i type="int" name="MAXMIX">   -45</i>
     <i name="WC">    100.00000000</i>
     <i type="int" name="INIMIX">     1</i>
     <i type="int" name="MIXPRE">     1</i>
     <i type="int" name="MREMOVE">     5</i>
    </separator>
   </separator>
   <separator name="electronic dipolcorrection" >
    <i type="logical" name="LDIPOL"> F  </i>
    <i type="logical" name="LMONO"> F  </i>
    <i type="int" name="IDIPOL">     0</i>
    <i name="EPSILON">      1.00000000</i>
    <v name="DIPOL">   -100.00000000   -100.00000000   -100.00000000</v>
    <i name="EFIELD">      0.00000000</i>
    <i type="logical" name="LVACPOTAV"> F  </i>
   </separator>
  </separator>
  <separator name="grids" >
   <i type="int" name="NGX">    48</i>
   <i type="int" name="NGY">    48</i>
   <i type="int" name="NGZ">   180</i>
   <i type="int" name="NGXF">    96</i>
   <i type="int" name="NGYF">    96</i>
   <i type="int" name="NGZF">   360</i>
   <i type="logical" name="ADDGRID"> F  </i>
  </separator>
  <separator name="ionic" >
   <i type="int" name="NSW">     0</i>
   <i type="int" name="IBRION">    -1</i>
   <i type="int" name="MDALGO">     0</i>
   <i type="int" name="ISIF">     2</i>
   <i name="PSTRESS">      0.00000000</i>
   <i name="EDIFFG">      0.00001000</i>
   <i type="int" name="NFREE">     0</i>
   <i name="POTIM">      0.50000000</i>
   <i name="SMASS">     -3.00000000</i>
   <i name="SCALEE">      1.00000000</i>
  </separator>
  <separator name="ionic md" >
   <i name="TEBEG">      0.00010000</i>
   <i name="TEEND">      0.00010000</i>
   <i type="int" name="NBLOCK">     1</i>
   <i type="int" name="KBLOCK">     1</i>
   <i type="int" name="NPACO">   256</i>
   <i name="APACO">     10.00000000</i>
  </separator>
  <separator name="symmetry" >
   <i type="int" name="ISYM">     2</i>
   <i name="SYMPREC">      0.00001000</i>
  </separator>
  <separator name="dos" >
   <i type="int" name="LORBIT">     0</i>
   <v name="RWIGS">     -1.00000000     -1.00000000</v>
   <i type="int" name="NEDOS">   301</i>
   <i name="EMIN">     10.00000000</i>
   <i name="EMAX">    -10.00000000</i>
   <i name="EFERMI">      0.00000000</i>
  </separator>
  <separator name="writing" >
   <i type="int" name="NWRITE">     2</i>
   <i type="logical" name="LWAVE"> F  </i>
   <i type="logical" name="LDOWNSAMPLE"> F  </i>
   <i type="logical" name="LCHARG"> F  </i>
   <i type="logical" name="LPARD"> F  </i>
   <i type="logical" name="LVTOT"> F  </i>
   <i type="logical" name="LVHAR"> F  </i>
   <i type="logical" name="LELF"> F  </i>
   <i type="logical" name="LOPTICS"> F  </i>
   <v name="STM">      0.00000000      0.00000000      0.00000000      0.00000000      0.00000000      0.00000000      0.00000000</v>
  </separator>
  <separator name="performance" >
   <i type="int" name="NPAR">    42</i>
   <i type="int" name="NSIM">     4</i>
   <i type="int" name="NBLK">    -1</i>
   <i type="logical" name="LPLANE"> T  </i>
   <i type="logical" name="LSCALAPACK"> T  </i>
   <i type="logical" name="LSCAAWARE"> F  </i>
   <i type="logical" name="LSCALU"> F  </i>
   <i type="logical" name="LASYNC"> F  </i>
   <i type="logical" name="LORBITALREAL"> F  </i>
  </separator>
  <separator name="miscellaneous" >
   <i type="int" name="IDIOT">     3</i>
   <i type="int" name="PHON_NSTRUCT">    -1</i>
   <i type="logical" name="LMUSIC"> F  </i>
   <v name="POMASS">     51.99600000     35.45300000</v>
   <v name="DARWINR">      0.00000000      0.00000000</v>
   <v name="DARWINV">      1.00000000      1.00000000</v>
   <i type="logical" name="LCORR"> T  </i>
  </separator>
  <i type="logical" name="GGA_COMPAT"> T  </i>
  <i type="logical" name="LBERRY"> F  </i>
  <i type="int" name="ICORELEVEL">     0</i>
  <i type="logical" name="LDAU"> F  </i>
  <i type="int" name="I_CONSTRAINED_M">     0</i>
  <separator name="electronic exchange-correlation" >
   <i type="string" name="GGA    ">PE</i>
   <i type="string" name="XC_C">1</i>
   <i type="int" name="VOSKOWN">     0</i>
   <i type="logical" name="LHFCALC"> F  </i>
   <i type="string" name="PRECFOCK"></i>
   <i type="logical" name="LSYMGRAD"> F  </i>
   <i type="logical" name="LHFONE"> F  </i>
   <i type="logical" name="LRHFCALC"> F  </i>
   <i type="logical" name="LTHOMAS"> F  </i>
   <i type="logical" name="LMODELHF"> F  </i>
   <i type="logical" name="LFOCKACE"> F  </i>
   <i name="ENCUT4O">     -1.00000000</i>
   <i type="int" name="EXXOEP">     0</i>
   <i type="int" name="FOURORBIT">     0</i>
   <i name="AEXX">      0.00000000</i>
   <i name="HFALPHA">      0.00000000</i>
   <i name="MCALPHA">      0.00000000</i>
   <i name="ALDAX">      1.00000000</i>
   <i name="AGGAX">      1.00000000</i>
   <i name="AMGGAX">      1.00000000</i>
   <i name="ALDAC">      1.00000000</i>
   <i name="AGGAC">      1.00000000</i>
   <i name="AMGGAC">      1.00000000</i>
   <i type="int" name="NKREDX">     1</i>
   <i type="int" name="NKREDY">     1</i>
   <i type="int" name="NKREDZ">     1</i>
   <i type="logical" name="SHIFTRED"> F  </i>
   <i type="logical" name="ODDONLY"> F  </i>
   <i type="logical" name="EVENONLY"> F  </i>
   <i type="int" name="LMAXFOCK">     0</i>
   <i type="int" name="NMAXFOCKAE">     0</i>
   <i type="logical" name="LFOCKAEDFT"> F  </i>
   <i name="HFSCREEN">      0.00000000</i>
   <i name="HFSCREENC">      0.00000000</i>
   <i type="int" name="NBANDSGWLOW">     0</i>
  </separator>
  <separator name="vdW DFT" >
   <i type="logical" name="LUSE_VDW"> F  </i>
   <i type="int" name="IVDW_NL">    -1</i>
   <i type="logical" name="LSPIN_VDW"> F  </i>
   <i name="ZAB_VDW">     -0.84910000</i>
   <i name="GAMMA_VDW">      1.39626340</i>
   <i name="ALPHA_VDW">      0.00000000</i>
   <i name="PARAM1">      0.12340000</i>
   <i name="PARAM2">      1.00000000</i>
   <i name="BPARAM">      6.30000000</i>
   <i name="CPARAM">      0.00930000</i>
  </separator>
  <separator name="model GW" >
   <i type="int" name="MODEL_GW">     0</i>
   <i name="MODEL_EPS0">     56.09861994</i>
   <i name="MODEL_ALPHA">      1.00000000</i>
  </separator>
  <separator name="linear response parameters" >
   <i type="logical" name="LEPSILON"> F  </i>
   <i type="logical" name="LRPA"> F  </i>
   <i type="logical" name="LNABLA"> F  </i>
   <i type="logical" name="LVEL"> F  </i>
   <i name="CSHIFT">      0.10000000</i>
   <i name="OMEGAMAX">     -1.00000000</i>
   <i name="DEG_THRESHOLD">      0.00200000</i>
   <i name="RTIME">     -0.10000000</i>
   <i name="WPLASMAI">      0.00000000</i>
   <v name="DFIELD">      0.00000000      0.00000000      0.00000000</v>
   <v name="WPLASMA">      0.00000000      0.00000000      0.00000000      0.00000000      0.00000000      0.00000000      0.00000000      0.00000000      0.00000000</v>
  </separator>
  <separator name="orbital magnetization" >
   <i type="logical" name="NUCIND"> F  </i>
   <v name="MAGPOS">      0.00000000      0.00000000      0.00000000</v>
   <i type="logical" name="LNICSALL"> T  </i>
   <i type="logical" name="ORBITALMAG"> F  </i>
   <i type="logical" name="LMAGBLOCH"> F  </i>
   <i type="logical" name="LCHIMAG"> F  </i>
   <i type="logical" name="LGAUGE"> T  </i>
   <i type="int" name="MAGATOM">     0</i>
   <v name="MAGDIPOL">      0.00000000      0.00000000      0.00000000</v>
   <v name="AVECCONST">      0.00000000      0.00000000      0.00000000</v>
  </separator>
  <separator name="response functions" >
   <i type="logical" name="LALL_IN_ONE"> F  </i>
   <i type="int" name="IALL_IN_ONE">    -1</i>
   <i type="int" name="NBANDS_WAVE">    -1</i>
   <i type="logical" name="LFINITE_TEMPERATURE"> F  </i>
   <i type="logical" name="LADDER"> F  </i>
   <i type="logical" name="LRPAFORCE"> F  </i>
   <i type="logical" name="LFXC"> F  </i>
   <i type="logical" name="LHARTREE"> T  </i>
   <i type="int" name="IBSE">     2</i>
   <v type="int" name="KPOINT">    -1     0     0     0</v>
   <i type="logical" name="LTCTC"> F  </i>
   <i type="logical" name="LTCTE"> F  </i>
   <i type="logical" name="LTETE"> F  </i>
   <i type="logical" name="LTRIPLET"> F  </i>
   <i type="logical" name="LFXCEPS"> F  </i>
   <i type="logical" name="LFXHEG"> F  </i>
   <i type="int" name="NATURALO">     2</i>
   <i type="logical" name="LHOLEGF"> F  </i>
   <i type="logical" name="L2ORDER"> F  </i>
   <i type="logical" name="LDMP1"> F  </i>
   <i type="logical" name="LMP2LT"> F  </i>
   <i type="logical" name="LSMP2LT"> F  </i>
   <i type="logical" name="LGWLF"> F  </i>
   <i name="ENCUTGW">     -1.60000002</i>
   <i name="ENCUTGWSOFT">     -1.60000002</i>
   <i name="ENCUTLF">     -1.00000000</i>
   <i type="logical" name="ESF_SPLINES"> F  </i>
   <i name="ESF_CONV">      0.01000000</i>
   <i type="int" name="ESF_NINTER">    15</i>
   <i type="int" name="LMAXMP2">    -1</i>
   <i name="SCISSOR">      0.00000000</i>
   <i type="int" name="NOMEGA">     0</i>
   <i type="int" name="NOMEGAR">     0</i>
   <i type="int" name="NBANDSGW">    -1</i>
   <i type="int" name="NBANDSO">    -1</i>
   <i type="int" name="NBANDSV">    -1</i>
   <i type="int" name="NELMGW">     1</i>
   <i type="int" name="NELMHF">     1</i>
   <i type="int" name="DIM">     3</i>
   <i type="int" name="IESPILON">     4</i>
   <i type="int" name="ANTIRES">     0</i>
   <i name="OMEGAMAX">    -30.00000000</i>
   <i name="OMEGAMIN">    -30.00000000</i>
   <i name="OMEGATL">   -200.00000000</i>
   <i type="int" name="OMEGAGRID">     0</i>
   <i name="CSHIFT">     -0.10000000</i>
   <i type="logical" name="LSELFENERGY"> F  </i>
   <i type="logical" name="LSPECTRAL"> F  </i>
   <i type="logical" name="LSPECTRALGW"> F  </i>
   <i type="logical" name="LSINGLES"> F  </i>
   <i type="logical" name="LFERMIGW"> F  </i>
   <i type="logical" name="ODDONLYGW"> F  </i>
   <i type="logical" name="EVENONLYGW"> F  </i>
   <i type="int" name="NKREDLFX">     1</i>
   <i type="int" name="NKREDLFY">     1</i>
   <i type="int" name="NKREDLFZ">     1</i>
   <i type="int" name="MAXMEM">  2800</i>
   <i type="int" name="TELESCOPE">     0</i>
   <i type="int" name="NTAUPAR">    -1</i>
   <i type="int" name="NOMEGAPAR">    -1</i>
   <i name="DAMP_NEWTON">      0.80000001</i>
   <i name="LAMBDA">      1.00000000</i>
  </separator>
  <separator name="External order field" >
   <i name="OFIELD_KAPPA">      0.00000000</i>
   <v name="OFIELD_K">      0.00000000      0.00000000      0.00000000</v>
   <i name="OFIELD_Q6_NEAR">      0.00000000</i>
   <i name="OFIELD_Q6_FAR">      0.00000000</i>
   <i name="OFIELD_A">      0.00000000</i>
  </separator>
  <separator name="optional k-points parameters" >
   <i type="int" name="KPOINTS_OPT_MODE">     1</i>
   <i type="logical" name="LKPOINTS_OPT"> F  </i>
  </separator>
 </parameters>
 <atominfo>
  <atoms>       8 </atoms>
  <types>       2 </types>
  <array name="atoms" >
   <dimension dim="1">ion</dimension>
   <field type="string">element</field>
   <field type="int">atomtype</field>
   <set>
    <rc><c>Cr</c><c>   1</c></rc>
    <rc><c>Cr</c><c>   1</c></rc>
    <rc><c>Cl</c><c>   2</c></rc>
    <rc><c>Cl</c><c>   2</c></rc>
    <rc><c>Cl</c><c>   2</c></rc>
    <rc><c>Cl</c><c>   2</c></rc>
    <rc><c>Cl</c><c>   2</c></rc>
    <rc><c>Cl</c><c>   2</c></rc>
   </set>
  </array>
  <array name="atomtypes" >
   <dimension dim="1">type</dimension>
   <field type="int">atomspertype</field>
   <field type="string">element</field>
   <field>mass</field>
   <field>valence</field>
   <field type="string">pseudopotential</field>
   <set>
    <rc><c>   2</c><c>Cr</c><c>     51.99600000</c><c>      6.00000000</c><c>  PAW_PBE Cr 06Sep2000                  </c></rc>
    <rc><c>   6</c><c>Cl</c><c>     35.45300000</c><c>      7.00000000</c><c>  PAW_PBE Cl 06Sep2000                  </c></rc>
   </set>
  </array>
 </atominfo>
 <structure name="initialpos" >
  <crystal>
   <varray name="basis" >
    <v>       6.15408800      -0.00274500       0.00061100 </v>
    <v>      -3.07942100       5.32782100       0.00067500 </v>
    <v>       0.00231000       0.00427900      22.81863100 </v>
   </varray>
   <i name="volume">    747.98159913 </i>
   <varray name="rec_basis" >
    <v>       0.16253552       0.09394372      -0.00003407 </v>
    <v>       0.00008375       0.18774240      -0.00003521 </v>
    <v>      -0.00000435      -0.00000807       0.04382384 </v>
   </varray>
  </crystal>
  <varray name="positions" >
   <v>       0.66673659       0.33327152       0.50000103 </v>
   <v>       0.99993200       0.00005715       0.49999678 </v>
   <v>       0.33303677       0.02431524       0.55991412 </v>
   <v>       0.97615759       0.30949873       0.55971000 </v>
   <v>       0.69101020       0.66638828       0.55992133 </v>
   <v>       0.69052433       0.02381943       0.44029028 </v>
   <v>       0.33361264       0.30901660       0.44008514 </v>
   <v>       0.97565723       0.66696118       0.44007979 </v>
  </varray>
 </structure>
 <calculation>
  <scstep>
   <time name="dav">   40.11  240.67</time>
   <time name="total">   41.95  251.71</time>
   <energy>
    <i name="alphaZ">     23.01523305 </i>
    <i name="ewald">   7534.95570762 </i>
    <i name="hartreedc"> -10194.69169658 </i>
    <i name="XCdc">     82.16018143 </i>
    <i name="pawpsdc">   2504.62862977 </i>
    <i name="pawaedc">  -2465.96035111 </i>
    <i name="eentropy">     -0.00541586 </i>
    <i name="bandstr">    -62.23387749 </i>
    <i name="atom">   3012.11119029 </i>
    <i name="e_fr_energy">    433.97960111 </i>
    <i name="e_wo_entrp">    433.98501698 </i>
    <i name="e_0_energy">    433.98230904 </i>
   </energy>
  </scstep>
  <scstep>
   <time name="dav">   58.93  353.46</time>
   <time name="total">   59.39  356.23</time>
   <energy>
    <i name="e_fr_energy">      2.70132226 </i>
    <i name="e_wo_entrp">      2.70627108 </i>
    <i name="e_0_energy">      2.70379667 </i>
   </energy>
  </scstep>
  <scstep>
   <time name="dav">   38.88  223.71</time>
   <time name="total">   38.99  224.35</time>
   <energy>
    <i name="e_fr_energy">    -41.94526721 </i>
    <i name="e_wo_entrp">    -41.94526721 </i>
    <i name="e_0_energy">    -41.94526721 </i>
   </energy>
  </scstep>
  <scstep>
   <time name="dav">   68.13  408.80</time>
   <time name="total">   68.23  409.37</time>
   <energy>
    <i name="e_fr_energy">    -42.97189674 </i>
    <i name="e_wo_entrp">    -42.97189674 </i>
    <i name="e_0_energy">    -42.97189674 </i>
   </energy>
  </scstep>
  <scstep>
   <time name="dav">   54.97  329.84</time>
   <time name="total">   60.37  362.24</time>
   <energy>
    <i name="e_fr_energy">    -42.97392141 </i>
    <i name="e_wo_entrp">    -42.97392141 </i>
    <i name="e_0_energy">    -42.97392141 </i>
   </energy>
  </scstep>
  <scstep>
   <time name="dav">   59.92  359.48</time>
   <time name="total">   66.69  400.41</time>
   <energy>
    <i name="e_fr_energy">    -36.68137761 </i>
    <i name="e_wo_entrp">    -36.68137761 </i>
    <i name="e_0_energy">    -36.68137761 </i>
   </energy>
  </scstep>
  <scstep>
   <time name="dav">   51.17  306.95</time>
   <time name="total">   57.80  346.75</time>
   <energy>
    <i name="e_fr_energy">    -34.43159230 </i>
    <i name="e_wo_entrp">    -34.43159230 </i>
    <i name="e_0_energy">    -34.43159230 </i>
   </energy>
  </scstep>
  <scstep>
   <time name="dav">   54.81  328.86</time>
   <time name="total">   61.42  368.47</time>
   <energy>
    <i name="e_fr_energy">    -34.82698511 </i>
    <i name="e_wo_entrp">    -34.82698511 </i>
    <i name="e_0_energy">    -34.82698511 </i>
   </energy>
  </scstep>
  <scstep>
   <time name="dav">   60.08  360.52</time>
   <time name="total">   66.75  400.53</time>
   <energy>
    <i name="e_fr_energy">    -36.16041330 </i>
    <i name="e_wo_entrp">    -36.16041330 </i>
    <i name="e_0_energy">    -36.16041330 </i>
   </energy>
  </scstep>
  <scstep>
   <time name="dav">   54.59  327.49</time>
   <time name="total">   61.41  368.43</time>
   <energy>
    <i name="e_fr_energy">    -36.82790077 </i>
    <i name="e_wo_entrp">    -36.82790077 </i>
    <i name="e_0_energy">    -36.82790077 </i>
   </energy>
  </scstep>
  <scstep>
   <time name="dav">   58.81  352.85</time>
   <time name="total">   65.55  393.29</time>
   <energy>
    <i name="e_fr_energy">    -37.58004613 </i>
    <i name="e_wo_entrp">    -37.58004613 </i>
    <i name="e_0_energy">    -37.58004613 </i>
   </energy>
  </scstep>
  <scstep>
   <time name="dav">   50.53  303.13</time>
   <time name="total">   57.32  343.91</time>
   <energy>
    <i name="e_fr_energy">    -38.21243381 </i>
    <i name="e_wo_entrp">    -38.21243381 </i>
    <i name="e_0_energy">    -38.21243381 </i>
   </energy>
  </scstep>
  <scstep>
   <time name="dav">   48.24  289.41</time>
   <time name="total">   55.07  330.42</time>
   <energy>
    <i name="e_fr_energy">    -38.51509764 </i>
    <i name="e_wo_entrp">    -38.51509764 </i>
    <i name="e_0_energy">    -38.51509764 </i>
   </energy>
  </scstep>
  <scstep>
   <time name="dav">   48.14  288.81</time>
   <time name="total">   54.85  329.09</time>
   <energy>
    <i name="e_fr_energy">    -38.65471792 </i>
    <i name="e_wo_entrp">    -38.65471792 </i>
    <i name="e_0_energy">    -38.65471792 </i>
   </energy>
  </scstep>
  <scstep>
   <time name="dav">   51.61  309.60</time>
   <time name="total">   58.39  350.25</time>
   <energy>
    <i name="e_fr_energy">    -38.75709081 </i>
    <i name="e_wo_entrp">    -38.75709081 </i>
    <i name="e_0_energy">    -38.75709081 </i>
   </energy>
  </scstep>
  <scstep>
   <time name="dav">   51.50  308.92</time>
   <time name="total">   58.25  349.41</time>
   <energy>
    <i name="e_fr_energy">    -38.77320338 </i>
    <i name="e_wo_entrp">    -38.77320338 </i>
    <i name="e_0_energy">    -38.77320338 </i>
   </energy>
  </scstep>
  <scstep>
   <time name="dav">   54.56  327.33</time>
   <time name="total">   61.38  368.31</time>
   <energy>
    <i name="e_fr_energy">    -38.78261124 </i>
    <i name="e_wo_entrp">    -38.78261124 </i>
    <i name="e_0_energy">    -38.78261124 </i>
   </energy>
  </scstep>
  <scstep>
   <time name="dav">   47.55  285.26</time>
   <time name="total">   54.37  326.16</time>
   <energy>
    <i name="e_fr_energy">    -38.78464002 </i>
    <i name="e_wo_entrp">    -38.78464002 </i>
    <i name="e_0_energy">    -38.78464002 </i>
   </energy>
  </scstep>
  <scstep>
   <time name="dav">   49.33  295.90</time>
   <time name="total">   56.29  337.68</time>
   <energy>
    <i name="e_fr_energy">    -38.78557061 </i>
    <i name="e_wo_entrp">    -38.78557061 </i>
    <i name="e_0_energy">    -38.78557061 </i>
   </energy>
  </scstep>
  <scstep>
   <time name="dav">   48.10  288.62</time>
   <time name="total">   54.94  329.62</time>
   <energy>
    <i name="e_fr_energy">    -38.78616233 </i>
    <i name="e_wo_entrp">    -38.78616233 </i>
    <i name="e_0_energy">    -38.78616233 </i>
   </energy>
  </scstep>
  <scstep>
   <time name="dav">   53.19  319.12</time>
   <time name="total">   60.12  360.67</time>
   <energy>
    <i name="e_fr_energy">    -38.78654838 </i>
    <i name="e_wo_entrp">    -38.78654838 </i>
    <i name="e_0_energy">    -38.78654838 </i>
   </energy>
  </scstep>
  <scstep>
   <time name="dav">   49.45  296.58</time>
   <time name="total">   56.04  336.02</time>
   <energy>
    <i name="e_fr_energy">    -38.78679577 </i>
    <i name="e_wo_entrp">    -38.78679577 </i>
    <i name="e_0_energy">    -38.78679577 </i>
   </energy>
  </scstep>
  <scstep>
   <time name="dav">   57.08  342.42</time>
   <time name="total">   63.86  383.06</time>
   <energy>
    <i name="e_fr_energy">    -38.78685495 </i>
    <i name="e_wo_entrp">    -38.78685495 </i>
    <i name="e_0_energy">    -38.78685495 </i>
   </energy>
  </scstep>
  <scstep>
   <time name="dav">   59.40  356.38</time>
   <time name="total">   66.15  396.80</time>
   <energy>
    <i name="e_fr_energy">    -38.78687904 </i>
    <i name="e_wo_entrp">    -38.78687904 </i>
    <i name="e_0_energy">    -38.78687904 </i>
   </energy>
  </scstep>
  <scstep>
   <time name="dav">   49.06  294.23</time>
   <time name="total">   55.90  335.32</time>
   <energy>
    <i name="e_fr_energy">    -38.78691239 </i>
    <i name="e_wo_entrp">    -38.78691239 </i>
    <i name="e_0_energy">    -38.78691239 </i>
   </energy>
  </scstep>
  <scstep>
   <time name="dav">   50.40  302.29</time>
   <time name="total">   57.19  343.04</time>
   <energy>
    <i name="e_fr_energy">    -38.78692859 </i>
    <i name="e_wo_entrp">    -38.78692859 </i>
    <i name="e_0_energy">    -38.78692859 </i>
   </energy>
  </scstep>
  <scstep>
   <time name="dav">   58.24  349.29</time>
   <time name="total">   65.25  391.32</time>
   <energy>
    <i name="e_fr_energy">    -38.78693116 </i>
    <i name="e_wo_entrp">    -38.78693116 </i>
    <i name="e_0_energy">    -38.78693116 </i>
   </energy>
  </scstep>
  <scstep>
   <time name="dav">   49.69  298.12</time>
   <time name="total">   56.40  338.32</time>
   <energy>
    <i name="e_fr_energy">    -38.78693473 </i>
    <i name="e_wo_entrp">    -38.78693473 </i>
    <i name="e_0_energy">    -38.78693473 </i>
   </energy>
  </scstep>
  <scstep>
   <time name="dav">   44.14  264.70</time>
   <time name="total">   51.00  305.86</time>
   <energy>
    <i name="e_fr_energy">    -38.78693733 </i>
    <i name="e_wo_entrp">    -38.78693733 </i>
    <i name="e_0_energy">    -38.78693733 </i>
   </energy>
  </scstep>
  <scstep>
   <time name="dav">   56.65  339.79</time>
   <time name="total">   58.12  348.56</time>
   <energy>
    <i name="alphaZ">     23.01523305 </i>
    <i name="ewald">   7534.95570762 </i>
    <i name="hartreedc"> -10197.90119415 </i>
    <i name="XCdc">     85.61412787 </i>
    <i name="pawpsdc">   3567.21261153 </i>
    <i name="pawaedc">  -3529.74692912 </i>
    <i name="eentropy">     -0.00000000 </i>
    <i name="bandstr">   -534.04768475 </i>
    <i name="atom">   3012.11119029 </i>
    <i name="e_fr_energy">    -38.78693765 </i>
    <i name="e_wo_entrp">    -38.78693765 </i>
    <i name="e_0_energy">    -38.78693765 </i>
   </energy>
  </scstep>
  <structure>
   <crystal>
    <varray name="basis" >
     <v>       6.15408800      -0.00274500       0.00061100 </v>
     <v>      -3.07942100       5.32782100       0.00067500 </v>
     <v>       0.00231000       0.00427900      22.81863100 </v>
    </varray>
    <i name="volume">    747.98159913 </i>
    <varray name="rec_basis" >
     <v>       0.16253552       0.09394372      -0.00003407 </v>
     <v>       0.00008375       0.18774240      -0.00003521 </v>
     <v>      -0.00000435      -0.00000807       0.04382384 </v>
    </varray>
   </crystal>
   <varray name="positions" >
    <v>       0.66673659       0.33327152       0.50000103 </v>
    <v>       0.99993200       0.00005715       0.49999678 </v>
    <v>       0.33303677       0.02431524       0.55991412 </v>
    <v>       0.97615759       0.30949873       0.55971000 </v>
    <v>       0.69101020       0.66638828       0.55992133 </v>
    <v>       0.69052433       0.02381943       0.44029028 </v>
    <v>       0.33361264       0.30901660       0.44008514 </v>
    <v>       0.97565723       0.66696118       0.44007979 </v>
   </varray>
  </structure>
  <varray name="forces" >
   <v>      -0.00489555       0.00210295      -0.00007726 </v>
   <v>       0.00465127      -0.00189888       0.00084737 </v>
   <v>      -0.14148379       0.25240365      -0.44070996 </v>
   <v>      -0.14613894      -0.25324659      -0.42879709 </v>
   <v>       0.28942849       0.00300564      -0.44108608 </v>
   <v>       0.14514881       0.25368015       0.42852388 </v>
   <v>       0.14231616      -0.25220572       0.44066113 </v>
   <v>      -0.28902645      -0.00384120       0.44063801 </v>
  </varray>
  <varray name="stress" >
   <v>      -8.01007882       0.00987007       0.01211462 </v>
   <v>       0.00987011      -7.99281349       0.01679369 </v>
   <v>       0.01211457       0.01679371      -7.83161043 </v>
  </varray>
  <energy>
   <i name="e_fr_energy">    -38.78693765 </i>
   <i name="e_wo_entrp">    -38.78693765 </i>
   <i name="e_0_energy">    -38.78693765 </i>
  </energy>
  <time name="totalsc"> 1764.4510575.65</time>
  <eigenvalues>
   <array>
    <dimension dim="1">band</dimension>
    <dimension dim="2">kpoint</dimension>
    <dimension dim="3">spin</dimension>
    <field>eigene</field>
    <field>occ</field>
    <set>
     <set comment="spin 1">
      <set comment="kpoint 1">
       <r>  -19.7147    1.0000 </r>
       <r>  -19.0521    1.0000 </r>
       <r>  -19.0309    1.0000 </r>
       <r>  -18.9696    1.0000 </r>
       <r>  -18.8609    1.0000 </r>
       <r>  -18.8576    1.0000 </r>
       <r>   -9.4974    1.0000 </r>
       <r>   -9.0854    1.0000 </r>
       <r>   -8.6833    1.0000 </r>
       <r>   -8.6434    1.0000 </r>
       <r>   -8.6163    1.0000 </r>
       <r>   -8.4359    1.0000 </r>
       <r>   -8.3019    1.0000 </r>
       <r>   -8.2843    1.0000 </r>
       <r>   -8.1127    1.0000 </r>
       <r>   -7.5782    1.0000 </r>
       <r>   -7.2791    1.0000 </r>
       <r>   -7.2416    1.0000 </r>
       <r>   -6.8913    1.0000 </r>
       <r>   -6.6683    1.0000 </r>
       <r>   -6.5379    1.0000 </r>
       <r>   -6.4606    1.0000 </r>
       <r>   -6.2465    1.0000 </r>
       <r>   -6.2099    1.0000 </r>
       <r>   -5.5419    1.0000 </r>
       <r>   -5.3351    1.0000 </r>
       <r>   -5.3117    1.0000 </r>
       <r>   -5.1438    1.0000 </r>
       <r>   -5.0375    1.0000 </r>
       <r>   -5.0080    1.0000 </r>
       <r>   -3.3590    0.0000 </r>
       <r>   -3.3351    0.0000 </r>
       <r>   -3.2693    0.0000 </r>
       <r>   -3.1500    0.0000 </r>
       <r>    1.2582    0.0000 </r>
       <r>    1.8142    0.0000 </r>
       <r>    2.3732    0.0000 </r>
       <r>    2.6923    0.0000 </r>
       <r>    2.7325    0.0000 </r>
       <r>    3.0805    0.0000 </r>
       <r>    3.3522    0.0000 </r>
       <r>    3.5586    0.0000 </r>
      </set>
      <set comment="kpoint 2">
       <r>  -19.5002    1.0000 </r>
       <r>  -19.2523    1.0000 </r>
       <r>  -19.0123    1.0000 </r>
       <r>  -18.9650    1.0000 </r>
       <r>  -18.9119    1.0000 </r>
       <r>  -18.8829    1.0000 </r>
       <r>   -9.4290    1.0000 </r>
       <r>   -9.0161    1.0000 </r>
       <r>   -8.7281    1.0000 </r>
       <r>   -8.6843    1.0000 </r>
       <r>   -8.5514    1.0000 </r>
       <r>   -8.4242    1.0000 </r>
       <r>   -8.3544    1.0000 </r>
       <r>   -8.1326    1.0000 </r>
       <r>   -7.8471    1.0000 </r>
       <r>   -7.5632    1.0000 </r>
       <r>   -7.5097    1.0000 </r>
       <r>   -7.1288    1.0000 </r>
       <r>   -7.0211    1.0000 </r>
       <r>   -6.8115    1.0000 </r>
       <r>   -6.5690    1.0000 </r>
       <r>   -6.4918    1.0000 </r>
       <r>   -6.2734    1.0000 </r>
       <r>   -6.2305    1.0000 </r>
       <r>   -5.5842    1.0000 </r>
       <r>   -5.3256    1.0000 </r>
       <r>   -5.2963    1.0000 </r>
       <r>   -5.0962    1.0000 </r>
       <r>   -5.0575    1.0000 </r>
       <r>   -4.9217    1.0000 </r>
       <r>   -3.3907    0.0000 </r>
       <r>   -3.3309    0.0000 </r>
       <r>   -3.2943    0.0000 </r>
       <r>   -3.1813    0.0000 </r>
       <r>    2.2619    0.0000 </r>
       <r>    2.3662    0.0000 </r>
       <r>    2.4753    0.0000 </r>
       <r>    2.7762    0.0000 </r>
       <r>    2.9319    0.0000 </r>
       <r>    3.0178    0.0000 </r>
       <r>    3.1725    0.0000 </r>
       <r>    3.2323    0.0000 </r>
      </set>
      <set comment="kpoint 3">
       <r>  -19.6150    1.0000 </r>
       <r>  -19.1353    1.0000 </r>
       <r>  -19.0159    1.0000 </r>
       <r>  -18.9906    1.0000 </r>
       <r>  -18.8786    1.0000 </r>
       <r>  -18.8729    1.0000 </r>
       <r>   -9.4558    1.0000 </r>
       <r>   -9.0682    1.0000 </r>
       <r>   -8.7096    1.0000 </r>
       <r>   -8.6570    1.0000 </r>
       <r>   -8.6100    1.0000 </r>
       <r>   -8.3976    1.0000 </r>
       <r>   -8.3382    1.0000 </r>
       <r>   -8.2579    1.0000 </r>
       <r>   -7.8750    1.0000 </r>
       <r>   -7.6100    1.0000 </r>
       <r>   -7.3265    1.0000 </r>
       <r>   -7.1163    1.0000 </r>
       <r>   -6.9633    1.0000 </r>
       <r>   -6.7466    1.0000 </r>
       <r>   -6.6588    1.0000 </r>
       <r>   -6.5272    1.0000 </r>
       <r>   -6.3024    1.0000 </r>
       <r>   -6.1817    1.0000 </r>
       <r>   -5.5357    1.0000 </r>
       <r>   -5.3538    1.0000 </r>
       <r>   -5.2980    1.0000 </r>
       <r>   -5.1120    1.0000 </r>
       <r>   -5.0344    1.0000 </r>
       <r>   -4.9539    1.0000 </r>
       <r>   -3.3556    0.0000 </r>
       <r>   -3.3475    0.0000 </r>
       <r>   -3.3047    0.0000 </r>
       <r>   -3.1732    0.0000 </r>
       <r>    1.7082    0.0000 </r>
       <r>    2.0996    0.0000 </r>
       <r>    2.5504    0.0000 </r>
       <r>    2.7130    0.0000 </r>
       <r>    2.9384    0.0000 </r>
       <r>    3.1525    0.0000 </r>
       <r>    3.4273    0.0000 </r>
       <r>    3.4958    0.0000 </r>
      </set>
      <set comment="kpoint 4">
       <r>  -19.7696    1.0000 </r>
       <r>  -19.0735    1.0000 </r>
       <r>  -18.9770    1.0000 </r>
       <r>  -18.9490    1.0000 </r>
       <r>  -18.8514    1.0000 </r>
       <r>  -18.8494    1.0000 </r>
       <r>   -9.5076    1.0000 </r>
       <r>   -9.1022    1.0000 </r>
       <r>   -8.6481    1.0000 </r>
       <r>   -8.6329    1.0000 </r>
       <r>   -8.5936    1.0000 </r>
       <r>   -8.5510    1.0000 </r>
       <r>   -8.2712    1.0000 </r>
       <r>   -8.2247    1.0000 </r>
       <r>   -8.2161    1.0000 </r>
       <r>   -7.5731    1.0000 </r>
       <r>   -7.4315    1.0000 </r>
       <r>   -7.4084    1.0000 </r>
       <r>   -6.8049    1.0000 </r>
       <r>   -6.5643    1.0000 </r>
       <r>   -6.4529    1.0000 </r>
       <r>   -6.2865    1.0000 </r>
       <r>   -6.2773    1.0000 </r>
       <r>   -6.1314    1.0000 </r>
       <r>   -5.5884    1.0000 </r>
       <r>   -5.3276    1.0000 </r>
       <r>   -5.3051    1.0000 </r>
       <r>   -5.1836    1.0000 </r>
       <r>   -5.0691    1.0000 </r>
       <r>   -5.0441    1.0000 </r>
       <r>   -3.3594    0.0000 </r>
       <r>   -3.3521    0.0000 </r>
       <r>   -3.1833    0.0000 </r>
       <r>   -3.1370    0.0000 </r>
       <r>    0.9897    0.0000 </r>
       <r>    1.6540    0.0000 </r>
       <r>    2.1940    0.0000 </r>
       <r>    2.5428    0.0000 </r>
       <r>    2.7384    0.0000 </r>
       <r>    2.7700    0.0000 </r>
       <r>    3.2385    0.0000 </r>
       <r>    3.9232    0.0000 </r>
      </set>
      <set comment="kpoint 5">
       <r>  -19.5000    1.0000 </r>
       <r>  -19.2524    1.0000 </r>
       <r>  -19.0123    1.0000 </r>
       <r>  -18.9649    1.0000 </r>
       <r>  -18.9121    1.0000 </r>
       <r>  -18.8828    1.0000 </r>
       <r>   -9.4290    1.0000 </r>
       <r>   -9.0159    1.0000 </r>
       <r>   -8.7282    1.0000 </r>
       <r>   -8.6841    1.0000 </r>
       <r>   -8.5515    1.0000 </r>
       <r>   -8.4243    1.0000 </r>
       <r>   -8.3546    1.0000 </r>
       <r>   -8.1327    1.0000 </r>
       <r>   -7.8470    1.0000 </r>
       <r>   -7.5633    1.0000 </r>
       <r>   -7.5095    1.0000 </r>
       <r>   -7.1288    1.0000 </r>
       <r>   -7.0214    1.0000 </r>
       <r>   -6.8112    1.0000 </r>
       <r>   -6.5688    1.0000 </r>
       <r>   -6.4918    1.0000 </r>
       <r>   -6.2735    1.0000 </r>
       <r>   -6.2306    1.0000 </r>
       <r>   -5.5842    1.0000 </r>
       <r>   -5.3256    1.0000 </r>
       <r>   -5.2964    1.0000 </r>
       <r>   -5.0962    1.0000 </r>
       <r>   -5.0574    1.0000 </r>
       <r>   -4.9217    1.0000 </r>
       <r>   -3.3906    0.0000 </r>
       <r>   -3.3308    0.0000 </r>
       <r>   -3.2943    0.0000 </r>
       <r>   -3.1813    0.0000 </r>
       <r>    2.2619    0.0000 </r>
       <r>    2.3662    0.0000 </r>
       <r>    2.4753    0.0000 </r>
       <r>    2.7763    0.0000 </r>
       <r>    2.9321    0.0000 </r>
       <r>    3.0179    0.0000 </r>
       <r>    3.1726    0.0000 </r>
       <r>    3.2325    0.0000 </r>
      </set>
      <set comment="kpoint 6">
       <r>  -19.4175    1.0000 </r>
       <r>  -19.3177    1.0000 </r>
       <r>  -19.0423    1.0000 </r>
       <r>  -18.9400    1.0000 </r>
       <r>  -18.9220    1.0000 </r>
       <r>  -18.8920    1.0000 </r>
       <r>   -9.2626    1.0000 </r>
       <r>   -9.0755    1.0000 </r>
       <r>   -8.7831    1.0000 </r>
       <r>   -8.6728    1.0000 </r>
       <r>   -8.6134    1.0000 </r>
       <r>   -8.3547    1.0000 </r>
       <r>   -8.3500    1.0000 </r>
       <r>   -8.2488    1.0000 </r>
       <r>   -8.0364    1.0000 </r>
       <r>   -7.5126    1.0000 </r>
       <r>   -7.1986    1.0000 </r>
       <r>   -7.0243    1.0000 </r>
       <r>   -6.9773    1.0000 </r>
       <r>   -6.9054    1.0000 </r>
       <r>   -6.6660    1.0000 </r>
       <r>   -6.4523    1.0000 </r>
       <r>   -6.3939    1.0000 </r>
       <r>   -6.3210    1.0000 </r>
       <r>   -5.5492    1.0000 </r>
       <r>   -5.2573    1.0000 </r>
       <r>   -5.2443    1.0000 </r>
       <r>   -5.0805    1.0000 </r>
       <r>   -5.0627    1.0000 </r>
       <r>   -4.9891    1.0000 </r>
       <r>   -3.3966    0.0000 </r>
       <r>   -3.3203    0.0000 </r>
       <r>   -3.3196    0.0000 </r>
       <r>   -3.1241    0.0000 </r>
       <r>    2.3821    0.0000 </r>
       <r>    2.4528    0.0000 </r>
       <r>    2.6364    0.0000 </r>
       <r>    2.6571    0.0000 </r>
       <r>    2.7958    0.0000 </r>
       <r>    3.0519    0.0000 </r>
       <r>    3.1338    0.0000 </r>
       <r>    3.5325    0.0000 </r>
      </set>
      <set comment="kpoint 7">
       <r>  -19.5732    1.0000 </r>
       <r>  -19.1907    1.0000 </r>
       <r>  -18.9998    1.0000 </r>
       <r>  -18.9807    1.0000 </r>
       <r>  -18.8957    1.0000 </r>
       <r>  -18.8747    1.0000 </r>
       <r>   -9.4900    1.0000 </r>
       <r>   -9.0278    1.0000 </r>
       <r>   -8.7061    1.0000 </r>
       <r>   -8.6634    1.0000 </r>
       <r>   -8.5469    1.0000 </r>
       <r>   -8.4576    1.0000 </r>
       <r>   -8.3532    1.0000 </r>
       <r>   -8.0596    1.0000 </r>
       <r>   -7.9327    1.0000 </r>
       <r>   -7.6449    1.0000 </r>
       <r>   -7.3193    1.0000 </r>
       <r>   -7.1765    1.0000 </r>
       <r>   -7.0386    1.0000 </r>
       <r>   -6.8245    1.0000 </r>
       <r>   -6.6294    1.0000 </r>
       <r>   -6.5314    1.0000 </r>
       <r>   -6.1885    1.0000 </r>
       <r>   -6.1324    1.0000 </r>
       <r>   -5.6124    1.0000 </r>
       <r>   -5.3333    1.0000 </r>
       <r>   -5.3330    1.0000 </r>
       <r>   -5.1074    1.0000 </r>
       <r>   -5.0560    1.0000 </r>
       <r>   -4.9071    1.0000 </r>
       <r>   -3.3730    0.0000 </r>
       <r>   -3.3411    0.0000 </r>
       <r>   -3.2682    0.0000 </r>
       <r>   -3.2228    0.0000 </r>
       <r>    1.9197    0.0000 </r>
       <r>    2.2369    0.0000 </r>
       <r>    2.4281    0.0000 </r>
       <r>    2.8787    0.0000 </r>
       <r>    3.0163    0.0000 </r>
       <r>    3.1408    0.0000 </r>
       <r>    3.2313    0.0000 </r>
       <r>    3.2729    0.0000 </r>
      </set>
      <set comment="kpoint 8">
       <r>  -19.6149    1.0000 </r>
       <r>  -19.1355    1.0000 </r>
       <r>  -19.0158    1.0000 </r>
       <r>  -18.9906    1.0000 </r>
       <r>  -18.8788    1.0000 </r>
       <r>  -18.8728    1.0000 </r>
       <r>   -9.4559    1.0000 </r>
       <r>   -9.0681    1.0000 </r>
       <r>   -8.7095    1.0000 </r>
       <r>   -8.6570    1.0000 </r>
       <r>   -8.6101    1.0000 </r>
       <r>   -8.3977    1.0000 </r>
       <r>   -8.3383    1.0000 </r>
       <r>   -8.2580    1.0000 </r>
       <r>   -7.8751    1.0000 </r>
       <r>   -7.6099    1.0000 </r>
       <r>   -7.3263    1.0000 </r>
       <r>   -7.1166    1.0000 </r>
       <r>   -6.9632    1.0000 </r>
       <r>   -6.7465    1.0000 </r>
       <r>   -6.6586    1.0000 </r>
       <r>   -6.5274    1.0000 </r>
       <r>   -6.3025    1.0000 </r>
       <r>   -6.1817    1.0000 </r>
       <r>   -5.5358    1.0000 </r>
       <r>   -5.3538    1.0000 </r>
       <r>   -5.2979    1.0000 </r>
       <r>   -5.1118    1.0000 </r>
       <r>   -5.0345    1.0000 </r>
       <r>   -4.9539    1.0000 </r>
       <r>   -3.3556    0.0000 </r>
       <r>   -3.3475    0.0000 </r>
       <r>   -3.3048    0.0000 </r>
       <r>   -3.1731    0.0000 </r>
       <r>    1.7085    0.0000 </r>
       <r>    2.0984    0.0000 </r>
       <r>    2.5494    0.0000 </r>
       <r>    2.7042    0.0000 </r>
       <r>    3.0036    0.0000 </r>
       <r>    3.1218    0.0000 </r>
       <r>    3.3230    0.0000 </r>
       <r>    3.4573    0.0000 </r>
      </set>
      <set comment="kpoint 9">
       <r>  -19.6149    1.0000 </r>
       <r>  -19.1355    1.0000 </r>
       <r>  -19.0158    1.0000 </r>
       <r>  -18.9906    1.0000 </r>
       <r>  -18.8788    1.0000 </r>
       <r>  -18.8728    1.0000 </r>
       <r>   -9.4559    1.0000 </r>
       <r>   -9.0681    1.0000 </r>
       <r>   -8.7095    1.0000 </r>
       <r>   -8.6570    1.0000 </r>
       <r>   -8.6101    1.0000 </r>
       <r>   -8.3977    1.0000 </r>
       <r>   -8.3383    1.0000 </r>
       <r>   -8.2580    1.0000 </r>
       <r>   -7.8751    1.0000 </r>
       <r>   -7.6099    1.0000 </r>
       <r>   -7.3263    1.0000 </r>
       <r>   -7.1166    1.0000 </r>
       <r>   -6.9632    1.0000 </r>
       <r>   -6.7465    1.0000 </r>
       <r>   -6.6586    1.0000 </r>
       <r>   -6.5274    1.0000 </r>
       <r>   -6.3025    1.0000 </r>
       <r>   -6.1817    1.0000 </r>
       <r>   -5.5358    1.0000 </r>
       <r>   -5.3538    1.0000 </r>
       <r>   -5.2979    1.0000 </r>
       <r>   -5.1118    1.0000 </r>
       <r>   -5.0345    1.0000 </r>
       <r>   -4.9539    1.0000 </r>
       <r>   -3.3556    0.0000 </r>
       <r>   -3.3475    0.0000 </r>
       <r>   -3.3048    0.0000 </r>
       <r>   -3.1731    0.0000 </r>
       <r>    1.7082    0.0000 </r>
       <r>    2.0996    0.0000 </r>
       <r>    2.5504    0.0000 </r>
       <r>    2.7131    0.0000 </r>
       <r>    2.9384    0.0000 </r>
       <r>    3.1527    0.0000 </r>
       <r>    3.4274    0.0000 </r>
       <r>    3.4959    0.0000 </r>
      </set>
      <set comment="kpoint 10">
       <r>  -19.5732    1.0000 </r>
       <r>  -19.1907    1.0000 </r>
       <r>  -18.9998    1.0000 </r>
       <r>  -18.9807    1.0000 </r>
       <r>  -18.8957    1.0000 </r>
       <r>  -18.8747    1.0000 </r>
       <r>   -9.4900    1.0000 </r>
       <r>   -9.0278    1.0000 </r>
       <r>   -8.7061    1.0000 </r>
       <r>   -8.6634    1.0000 </r>
       <r>   -8.5469    1.0000 </r>
       <r>   -8.4576    1.0000 </r>
       <r>   -8.3532    1.0000 </r>
       <r>   -8.0596    1.0000 </r>
       <r>   -7.9327    1.0000 </r>
       <r>   -7.6449    1.0000 </r>
       <r>   -7.3193    1.0000 </r>
       <r>   -7.1765    1.0000 </r>
       <r>   -7.0387    1.0000 </r>
       <r>   -6.8245    1.0000 </r>
       <r>   -6.6294    1.0000 </r>
       <r>   -6.5314    1.0000 </r>
       <r>   -6.1885    1.0000 </r>
       <r>   -6.1324    1.0000 </r>
       <r>   -5.6124    1.0000 </r>
       <r>   -5.3333    1.0000 </r>
       <r>   -5.3330    1.0000 </r>
       <r>   -5.1074    1.0000 </r>
       <r>   -5.0560    1.0000 </r>
       <r>   -4.9071    1.0000 </r>
       <r>   -3.3730    0.0000 </r>
       <r>   -3.3411    0.0000 </r>
       <r>   -3.2682    0.0000 </r>
       <r>   -3.2228    0.0000 </r>
       <r>    1.9197    0.0000 </r>
       <r>    2.2369    0.0000 </r>
       <r>    2.4281    0.0000 </r>
       <r>    2.8788    0.0000 </r>
       <r>    3.0163    0.0000 </r>
       <r>    3.1407    0.0000 </r>
       <r>    3.2314    0.0000 </r>
       <r>    3.2729    0.0000 </r>
      </set>
      <set comment="kpoint 11">
       <r>  -19.4175    1.0000 </r>
       <r>  -19.3177    1.0000 </r>
       <r>  -19.0423    1.0000 </r>
       <r>  -18.9400    1.0000 </r>
       <r>  -18.9220    1.0000 </r>
       <r>  -18.8920    1.0000 </r>
       <r>   -9.2626    1.0000 </r>
       <r>   -9.0755    1.0000 </r>
       <r>   -8.7831    1.0000 </r>
       <r>   -8.6728    1.0000 </r>
       <r>   -8.6134    1.0000 </r>
       <r>   -8.3547    1.0000 </r>
       <r>   -8.3500    1.0000 </r>
       <r>   -8.2488    1.0000 </r>
       <r>   -8.0364    1.0000 </r>
       <r>   -7.5126    1.0000 </r>
       <r>   -7.1986    1.0000 </r>
       <r>   -7.0243    1.0000 </r>
       <r>   -6.9773    1.0000 </r>
       <r>   -6.9054    1.0000 </r>
       <r>   -6.6660    1.0000 </r>
       <r>   -6.4523    1.0000 </r>
       <r>   -6.3939    1.0000 </r>
       <r>   -6.3210    1.0000 </r>
       <r>   -5.5492    1.0000 </r>
       <r>   -5.2573    1.0000 </r>
       <r>   -5.2443    1.0000 </r>
       <r>   -5.0805    1.0000 </r>
       <r>   -5.0627    1.0000 </r>
       <r>   -4.9891    1.0000 </r>
       <r>   -3.3966    0.0000 </r>
       <r>   -3.3203    0.0000 </r>
       <r>   -3.3196    0.0000 </r>
       <r>   -3.1241    0.0000 </r>
       <r>    2.3822    0.0000 </r>
       <r>    2.4535    0.0000 </r>
       <r>    2.6359    0.0000 </r>
       <r>    2.6588    0.0000 </r>
       <r>    2.7945    0.0000 </r>
       <r>    3.0446    0.0000 </r>
       <r>    3.1225    0.0000 </r>
       <r>    3.5321    0.0000 </r>
      </set>
      <set comment="kpoint 12">
       <r>  -19.5000    1.0000 </r>
       <r>  -19.2524    1.0000 </r>
       <r>  -19.0123    1.0000 </r>
       <r>  -18.9649    1.0000 </r>
       <r>  -18.9121    1.0000 </r>
       <r>  -18.8828    1.0000 </r>
       <r>   -9.4290    1.0000 </r>
       <r>   -9.0159    1.0000 </r>
       <r>   -8.7282    1.0000 </r>
       <r>   -8.6841    1.0000 </r>
       <r>   -8.5515    1.0000 </r>
       <r>   -8.4243    1.0000 </r>
       <r>   -8.3546    1.0000 </r>
       <r>   -8.1327    1.0000 </r>
       <r>   -7.8470    1.0000 </r>
       <r>   -7.5633    1.0000 </r>
       <r>   -7.5095    1.0000 </r>
       <r>   -7.1288    1.0000 </r>
       <r>   -7.0214    1.0000 </r>
       <r>   -6.8112    1.0000 </r>
       <r>   -6.5688    1.0000 </r>
       <r>   -6.4918    1.0000 </r>
       <r>   -6.2735    1.0000 </r>
       <r>   -6.2306    1.0000 </r>
       <r>   -5.5842    1.0000 </r>
       <r>   -5.3256    1.0000 </r>
       <r>   -5.2964    1.0000 </r>
       <r>   -5.0962    1.0000 </r>
       <r>   -5.0574    1.0000 </r>
       <r>   -4.9217    1.0000 </r>
       <r>   -3.3906    0.0000 </r>
       <r>   -3.3308    0.0000 </r>
       <r>   -3.2943    0.0000 </r>
       <r>   -3.1813    0.0000 </r>
       <r>    2.2631    0.0000 </r>
       <r>    2.3664    0.0000 </r>
       <r>    2.4727    0.0000 </r>
       <r>    2.7772    0.0000 </r>
       <r>    2.9307    0.0000 </r>
       <r>    3.0017    0.0000 </r>
       <r>    3.1642    0.0000 </r>
       <r>    3.3076    0.0000 </r>
      </set>
      <set comment="kpoint 13">
       <r>  -19.7696    1.0000 </r>
       <r>  -19.0735    1.0000 </r>
       <r>  -18.9770    1.0000 </r>
       <r>  -18.9490    1.0000 </r>
       <r>  -18.8514    1.0000 </r>
       <r>  -18.8494    1.0000 </r>
       <r>   -9.5076    1.0000 </r>
       <r>   -9.1022    1.0000 </r>
       <r>   -8.6481    1.0000 </r>
       <r>   -8.6329    1.0000 </r>
       <r>   -8.5936    1.0000 </r>
       <r>   -8.5510    1.0000 </r>
       <r>   -8.2712    1.0000 </r>
       <r>   -8.2247    1.0000 </r>
       <r>   -8.2161    1.0000 </r>
       <r>   -7.5731    1.0000 </r>
       <r>   -7.4315    1.0000 </r>
       <r>   -7.4084    1.0000 </r>
       <r>   -6.8049    1.0000 </r>
       <r>   -6.5643    1.0000 </r>
       <r>   -6.4529    1.0000 </r>
       <r>   -6.2865    1.0000 </r>
       <r>   -6.2773    1.0000 </r>
       <r>   -6.1314    1.0000 </r>
       <r>   -5.5884    1.0000 </r>
       <r>   -5.3276    1.0000 </r>
       <r>   -5.3051    1.0000 </r>
       <r>   -5.1836    1.0000 </r>
       <r>   -5.0691    1.0000 </r>
       <r>   -5.0441    1.0000 </r>
       <r>   -3.3594    0.0000 </r>
       <r>   -3.3521    0.0000 </r>
       <r>   -3.1833    0.0000 </r>
       <r>   -3.1370    0.0000 </r>
       <r>    0.9897    0.0000 </r>
       <r>    1.6540    0.0000 </r>
       <r>    2.1940    0.0000 </r>
       <r>    2.5428    0.0000 </r>
       <r>    2.7384    0.0000 </r>
       <r>    2.7699    0.0000 </r>
       <r>    3.2385    0.0000 </r>
       <r>    3.9232    0.0000 </r>
      </set>
      <set comment="kpoint 14">
       <r>  -19.6150    1.0000 </r>
       <r>  -19.1353    1.0000 </r>
       <r>  -19.0159    1.0000 </r>
       <r>  -18.9906    1.0000 </r>
       <r>  -18.8786    1.0000 </r>
       <r>  -18.8729    1.0000 </r>
       <r>   -9.4558    1.0000 </r>
       <r>   -9.0682    1.0000 </r>
       <r>   -8.7096    1.0000 </r>
       <r>   -8.6570    1.0000 </r>
       <r>   -8.6100    1.0000 </r>
       <r>   -8.3977    1.0000 </r>
       <r>   -8.3382    1.0000 </r>
       <r>   -8.2579    1.0000 </r>
       <r>   -7.8750    1.0000 </r>
       <r>   -7.6100    1.0000 </r>
       <r>   -7.3265    1.0000 </r>
       <r>   -7.1163    1.0000 </r>
       <r>   -6.9633    1.0000 </r>
       <r>   -6.7466    1.0000 </r>
       <r>   -6.6588    1.0000 </r>
       <r>   -6.5272    1.0000 </r>
       <r>   -6.3024    1.0000 </r>
       <r>   -6.1817    1.0000 </r>
       <r>   -5.5357    1.0000 </r>
       <r>   -5.3538    1.0000 </r>
       <r>   -5.2980    1.0000 </r>
       <r>   -5.1120    1.0000 </r>
       <r>   -5.0344    1.0000 </r>
       <r>   -4.9539    1.0000 </r>
       <r>   -3.3556    0.0000 </r>
       <r>   -3.3475    0.0000 </r>
       <r>   -3.3047    0.0000 </r>
       <r>   -3.1732    0.0000 </r>
       <r>    1.7084    0.0000 </r>
       <r>    2.0984    0.0000 </r>
       <r>    2.5494    0.0000 </r>
       <r>    2.7042    0.0000 </r>
       <r>    3.0035    0.0000 </r>
       <r>    3.1217    0.0000 </r>
       <r>    3.3230    0.0000 </r>
       <r>    3.4574    0.0000 </r>
      </set>
      <set comment="kpoint 15">
       <r>  -19.5002    1.0000 </r>
       <r>  -19.2523    1.0000 </r>
       <r>  -19.0123    1.0000 </r>
       <r>  -18.9650    1.0000 </r>
       <r>  -18.9119    1.0000 </r>
       <r>  -18.8829    1.0000 </r>
       <r>   -9.4290    1.0000 </r>
       <r>   -9.0161    1.0000 </r>
       <r>   -8.7281    1.0000 </r>
       <r>   -8.6843    1.0000 </r>
       <r>   -8.5514    1.0000 </r>
       <r>   -8.4242    1.0000 </r>
       <r>   -8.3544    1.0000 </r>
       <r>   -8.1326    1.0000 </r>
       <r>   -7.8471    1.0000 </r>
       <r>   -7.5632    1.0000 </r>
       <r>   -7.5097    1.0000 </r>
       <r>   -7.1288    1.0000 </r>
       <r>   -7.0211    1.0000 </r>
       <r>   -6.8115    1.0000 </r>
       <r>   -6.5690    1.0000 </r>
       <r>   -6.4918    1.0000 </r>
       <r>   -6.2734    1.0000 </r>
       <r>   -6.2305    1.0000 </r>
       <r>   -5.5842    1.0000 </r>
       <r>   -5.3256    1.0000 </r>
       <r>   -5.2963    1.0000 </r>
       <r>   -5.0963    1.0000 </r>
       <r>   -5.0575    1.0000 </r>
       <r>   -4.9217    1.0000 </r>
       <r>   -3.3907    0.0000 </r>
       <r>   -3.3309    0.0000 </r>
       <r>   -3.2942    0.0000 </r>
       <r>   -3.1813    0.0000 </r>
       <r>    2.2630    0.0000 </r>
       <r>    2.3664    0.0000 </r>
       <r>    2.4726    0.0000 </r>
       <r>    2.7771    0.0000 </r>
       <r>    2.9306    0.0000 </r>
       <r>    3.0017    0.0000 </r>
       <r>    3.1640    0.0000 </r>
       <r>    3.3076    0.0000 </r>
      </set>
      <set comment="kpoint 16">
       <r>  -19.7147    1.0000 </r>
       <r>  -19.0521    1.0000 </r>
       <r>  -19.0309    1.0000 </r>
       <r>  -18.9696    1.0000 </r>
       <r>  -18.8609    1.0000 </r>
       <r>  -18.8576    1.0000 </r>
       <r>   -9.4974    1.0000 </r>
       <r>   -9.0854    1.0000 </r>
       <r>   -8.6833    1.0000 </r>
       <r>   -8.6434    1.0000 </r>
       <r>   -8.6163    1.0000 </r>
       <r>   -8.4359    1.0000 </r>
       <r>   -8.3019    1.0000 </r>
       <r>   -8.2843    1.0000 </r>
       <r>   -8.1127    1.0000 </r>
       <r>   -7.5782    1.0000 </r>
       <r>   -7.2791    1.0000 </r>
       <r>   -7.2416    1.0000 </r>
       <r>   -6.8913    1.0000 </r>
       <r>   -6.6683    1.0000 </r>
       <r>   -6.5379    1.0000 </r>
       <r>   -6.4606    1.0000 </r>
       <r>   -6.2465    1.0000 </r>
       <r>   -6.2099    1.0000 </r>
       <r>   -5.5419    1.0000 </r>
       <r>   -5.3351    1.0000 </r>
       <r>   -5.3117    1.0000 </r>
       <r>   -5.1438    1.0000 </r>
       <r>   -5.0375    1.0000 </r>
       <r>   -5.0080    1.0000 </r>
       <r>   -3.3590    0.0000 </r>
       <r>   -3.3351    0.0000 </r>
       <r>   -3.2693    0.0000 </r>
       <r>   -3.1500    0.0000 </r>
       <r>    1.2583    0.0000 </r>
       <r>    1.8137    0.0000 </r>
       <r>    2.3731    0.0000 </r>
       <r>    2.6923    0.0000 </r>
       <r>    2.7465    0.0000 </r>
       <r>    3.0413    0.0000 </r>
       <r>    3.3854    0.0000 </r>
       <r>    3.5576    0.0000 </r>
      </set>
     </set>
     <set comment="spin 2">
      <set comment="kpoint 1">
       <r>  -19.7242    1.0000 </r>
       <r>  -19.0946    1.0000 </r>
       <r>  -19.0693    1.0000 </r>
       <r>  -19.0124    1.0000 </r>
       <r>  -18.9001    1.0000 </r>
       <r>  -18.8979    1.0000 </r>
       <r>   -9.2753    1.0000 </r>
       <r>   -8.8331    1.0000 </r>
       <r>   -8.4850    1.0000 </r>
       <r>   -8.4776    1.0000 </r>
       <r>   -8.3385    1.0000 </r>
       <r>   -8.2213    1.0000 </r>
       <r>   -7.9335    1.0000 </r>
       <r>   -7.9208    1.0000 </r>
       <r>   -7.7635    1.0000 </r>
       <r>   -7.2656    1.0000 </r>
       <r>   -7.0639    1.0000 </r>
       <r>   -6.9917    1.0000 </r>
       <r>   -6.7579    1.0000 </r>
       <r>   -6.5822    1.0000 </r>
       <r>   -6.3354    1.0000 </r>
       <r>   -6.2715    1.0000 </r>
       <r>   -6.1541    1.0000 </r>
       <r>   -6.1069    1.0000 </r>
       <r>   -2.5867    0.0000 </r>
       <r>   -2.5192    0.0000 </r>
       <r>   -2.4151    0.0000 </r>
       <r>   -2.3223    0.0000 </r>
       <r>   -2.2542    0.0000 </r>
       <r>   -2.2246    0.0000 </r>
       <r>   -1.7982    0.0000 </r>
       <r>   -1.7593    0.0000 </r>
       <r>   -1.7399    0.0000 </r>
       <r>   -1.6874    0.0000 </r>
       <r>    1.4012    0.0000 </r>
       <r>    1.8407    0.0000 </r>
       <r>    2.4186    0.0000 </r>
       <r>    2.8740    0.0000 </r>
       <r>    3.3069    0.0000 </r>
       <r>    3.3284    0.0000 </r>
       <r>    3.5683    0.0000 </r>
       <r>    3.7402    0.0000 </r>
      </set>
      <set comment="kpoint 2">
       <r>  -19.5169    1.0000 </r>
       <r>  -19.2813    1.0000 </r>
       <r>  -19.0545    1.0000 </r>
       <r>  -19.0075    1.0000 </r>
       <r>  -18.9525    1.0000 </r>
       <r>  -18.9214    1.0000 </r>
       <r>   -9.1995    1.0000 </r>
       <r>   -8.7858    1.0000 </r>
       <r>   -8.5809    1.0000 </r>
       <r>   -8.4259    1.0000 </r>
       <r>   -8.2516    1.0000 </r>
       <r>   -8.1463    1.0000 </r>
       <r>   -8.0295    1.0000 </r>
       <r>   -7.7844    1.0000 </r>
       <r>   -7.5364    1.0000 </r>
       <r>   -7.3394    1.0000 </r>
       <r>   -7.2585    1.0000 </r>
       <r>   -6.9488    1.0000 </r>
       <r>   -6.7163    1.0000 </r>
       <r>   -6.6637    1.0000 </r>
       <r>   -6.5065    1.0000 </r>
       <r>   -6.3100    1.0000 </r>
       <r>   -6.1512    1.0000 </r>
       <r>   -6.0625    1.0000 </r>
       <r>   -2.6620    0.0000 </r>
       <r>   -2.6493    0.0000 </r>
       <r>   -2.4061    0.0000 </r>
       <r>   -2.3582    0.0000 </r>
       <r>   -2.1745    0.0000 </r>
       <r>   -2.1603    0.0000 </r>
       <r>   -1.8353    0.0000 </r>
       <r>   -1.7710    0.0000 </r>
       <r>   -1.7096    0.0000 </r>
       <r>   -1.7062    0.0000 </r>
       <r>    2.3512    0.0000 </r>
       <r>    2.5371    0.0000 </r>
       <r>    2.8316    0.0000 </r>
       <r>    2.9031    0.0000 </r>
       <r>    3.0820    0.0000 </r>
       <r>    3.2458    0.0000 </r>
       <r>    3.3212    0.0000 </r>
       <r>    3.6868    0.0000 </r>
      </set>
      <set comment="kpoint 3">
       <r>  -19.6279    1.0000 </r>
       <r>  -19.1689    1.0000 </r>
       <r>  -19.0576    1.0000 </r>
       <r>  -19.0338    1.0000 </r>
       <r>  -18.9192    1.0000 </r>
       <r>  -18.9117    1.0000 </r>
       <r>   -9.2333    1.0000 </r>
       <r>   -8.8226    1.0000 </r>
       <r>   -8.5441    1.0000 </r>
       <r>   -8.4810    1.0000 </r>
       <r>   -8.2846    1.0000 </r>
       <r>   -8.0872    1.0000 </r>
       <r>   -8.0675    1.0000 </r>
       <r>   -7.8519    1.0000 </r>
       <r>   -7.5868    1.0000 </r>
       <r>   -7.3287    1.0000 </r>
       <r>   -7.0199    1.0000 </r>
       <r>   -6.9718    1.0000 </r>
       <r>   -6.7788    1.0000 </r>
       <r>   -6.6705    1.0000 </r>
       <r>   -6.4697    1.0000 </r>
       <r>   -6.2793    1.0000 </r>
       <r>   -6.1446    1.0000 </r>
       <r>   -6.1238    1.0000 </r>
       <r>   -2.6205    0.0000 </r>
       <r>   -2.5945    0.0000 </r>
       <r>   -2.4025    0.0000 </r>
       <r>   -2.3477    0.0000 </r>
       <r>   -2.2023    0.0000 </r>
       <r>   -2.1864    0.0000 </r>
       <r>   -1.8297    0.0000 </r>
       <r>   -1.7578    0.0000 </r>
       <r>   -1.7342    0.0000 </r>
       <r>   -1.7046    0.0000 </r>
       <r>    1.8245    0.0000 </r>
       <r>    2.1357    0.0000 </r>
       <r>    2.7573    0.0000 </r>
       <r>    3.0856    0.0000 </r>
       <r>    3.2404    0.0000 </r>
       <r>    3.2902    0.0000 </r>
       <r>    3.6636    0.0000 </r>
       <r>    3.7123    0.0000 </r>
      </set>
      <set comment="kpoint 4">
       <r>  -19.7772    1.0000 </r>
       <r>  -19.1163    1.0000 </r>
       <r>  -19.0180    1.0000 </r>
       <r>  -18.9917    1.0000 </r>
       <r>  -18.8913    1.0000 </r>
       <r>  -18.8892    1.0000 </r>
       <r>   -9.2828    1.0000 </r>
       <r>   -8.8443    1.0000 </r>
       <r>   -8.4690    1.0000 </r>
       <r>   -8.3968    1.0000 </r>
       <r>   -8.3646    1.0000 </r>
       <r>   -8.3256    1.0000 </r>
       <r>   -8.0600    1.0000 </r>
       <r>   -7.8299    1.0000 </r>
       <r>   -7.7825    1.0000 </r>
       <r>   -7.2542    1.0000 </r>
       <r>   -7.1561    1.0000 </r>
       <r>   -7.1454    1.0000 </r>
       <r>   -6.7735    1.0000 </r>
       <r>   -6.4587    1.0000 </r>
       <r>   -6.2357    1.0000 </r>
       <r>   -6.1781    1.0000 </r>
       <r>   -6.1629    1.0000 </r>
       <r>   -6.0513    1.0000 </r>
       <r>   -2.5584    0.0000 </r>
       <r>   -2.4816    0.0000 </r>
       <r>   -2.4313    0.0000 </r>
       <r>   -2.3623    0.0000 </r>
       <r>   -2.2615    0.0000 </r>
       <r>   -2.2375    0.0000 </r>
       <r>   -1.7722    0.0000 </r>
       <r>   -1.7701    0.0000 </r>
       <r>   -1.7065    0.0000 </r>
       <r>   -1.6731    0.0000 </r>
       <r>    1.1526    0.0000 </r>
       <r>    1.6786    0.0000 </r>
       <r>    2.2420    0.0000 </r>
       <r>    2.6640    0.0000 </r>
       <r>    3.0102    0.0000 </r>
       <r>    3.3566    0.0000 </r>
       <r>    3.4275    0.0000 </r>
       <r>    4.0836    0.0000 </r>
      </set>
      <set comment="kpoint 5">
       <r>  -19.5167    1.0000 </r>
       <r>  -19.2815    1.0000 </r>
       <r>  -19.0545    1.0000 </r>
       <r>  -19.0074    1.0000 </r>
       <r>  -18.9527    1.0000 </r>
       <r>  -18.9213    1.0000 </r>
       <r>   -9.1995    1.0000 </r>
       <r>   -8.7856    1.0000 </r>
       <r>   -8.5807    1.0000 </r>
       <r>   -8.4260    1.0000 </r>
       <r>   -8.2517    1.0000 </r>
       <r>   -8.1465    1.0000 </r>
       <r>   -8.0295    1.0000 </r>
       <r>   -7.7844    1.0000 </r>
       <r>   -7.5363    1.0000 </r>
       <r>   -7.3394    1.0000 </r>
       <r>   -7.2584    1.0000 </r>
       <r>   -6.9492    1.0000 </r>
       <r>   -6.7161    1.0000 </r>
       <r>   -6.6636    1.0000 </r>
       <r>   -6.5063    1.0000 </r>
       <r>   -6.3101    1.0000 </r>
       <r>   -6.1512    1.0000 </r>
       <r>   -6.0625    1.0000 </r>
       <r>   -2.6622    0.0000 </r>
       <r>   -2.6492    0.0000 </r>
       <r>   -2.4061    0.0000 </r>
       <r>   -2.3583    0.0000 </r>
       <r>   -2.1744    0.0000 </r>
       <r>   -2.1603    0.0000 </r>
       <r>   -1.8352    0.0000 </r>
       <r>   -1.7709    0.0000 </r>
       <r>   -1.7098    0.0000 </r>
       <r>   -1.7063    0.0000 </r>
       <r>    2.3513    0.0000 </r>
       <r>    2.5372    0.0000 </r>
       <r>    2.8318    0.0000 </r>
       <r>    2.9032    0.0000 </r>
       <r>    3.0821    0.0000 </r>
       <r>    3.2459    0.0000 </r>
       <r>    3.3213    0.0000 </r>
       <r>    3.6869    0.0000 </r>
      </set>
      <set comment="kpoint 6">
       <r>  -19.4375    1.0000 </r>
       <r>  -19.3427    1.0000 </r>
       <r>  -19.0846    1.0000 </r>
       <r>  -18.9823    1.0000 </r>
       <r>  -18.9628    1.0000 </r>
       <r>  -18.9305    1.0000 </r>
       <r>   -9.0403    1.0000 </r>
       <r>   -8.8555    1.0000 </r>
       <r>   -8.5300    1.0000 </r>
       <r>   -8.4499    1.0000 </r>
       <r>   -8.3890    1.0000 </r>
       <r>   -8.0776    1.0000 </r>
       <r>   -8.0431    1.0000 </r>
       <r>   -7.8112    1.0000 </r>
       <r>   -7.7606    1.0000 </r>
       <r>   -7.3123    1.0000 </r>
       <r>   -7.0978    1.0000 </r>
       <r>   -6.8814    1.0000 </r>
       <r>   -6.7661    1.0000 </r>
       <r>   -6.5657    1.0000 </r>
       <r>   -6.4457    1.0000 </r>
       <r>   -6.3329    1.0000 </r>
       <r>   -6.1599    1.0000 </r>
       <r>   -6.1480    1.0000 </r>
       <r>   -2.6596    0.0000 </r>
       <r>   -2.6495    0.0000 </r>
       <r>   -2.4201    0.0000 </r>
       <r>   -2.4007    0.0000 </r>
       <r>   -2.1784    0.0000 </r>
       <r>   -2.1630    0.0000 </r>
       <r>   -1.8035    0.0000 </r>
       <r>   -1.7512    0.0000 </r>
       <r>   -1.7262    0.0000 </r>
       <r>   -1.6735    0.0000 </r>
       <r>    2.5968    0.0000 </r>
       <r>    2.6658    0.0000 </r>
       <r>    2.8238    0.0000 </r>
       <r>    2.9138    0.0000 </r>
       <r>    2.9628    0.0000 </r>
       <r>    3.3515    0.0000 </r>
       <r>    3.5821    0.0000 </r>
       <r>    3.6203    0.0000 </r>
      </set>
      <set comment="kpoint 7">
       <r>  -19.5875    1.0000 </r>
       <r>  -19.2225    1.0000 </r>
       <r>  -19.0414    1.0000 </r>
       <r>  -19.0243    1.0000 </r>
       <r>  -18.9361    1.0000 </r>
       <r>  -18.9132    1.0000 </r>
       <r>   -9.2604    1.0000 </r>
       <r>   -8.7901    1.0000 </r>
       <r>   -8.5836    1.0000 </r>
       <r>   -8.4271    1.0000 </r>
       <r>   -8.2272    1.0000 </r>
       <r>   -8.1398    1.0000 </r>
       <r>   -8.0415    1.0000 </r>
       <r>   -7.7491    1.0000 </r>
       <r>   -7.6120    1.0000 </r>
       <r>   -7.3495    1.0000 </r>
       <r>   -7.0685    1.0000 </r>
       <r>   -6.9783    1.0000 </r>
       <r>   -6.7636    1.0000 </r>
       <r>   -6.6680    1.0000 </r>
       <r>   -6.6073    1.0000 </r>
       <r>   -6.2898    1.0000 </r>
       <r>   -6.1358    1.0000 </r>
       <r>   -6.0386    1.0000 </r>
       <r>   -2.6520    0.0000 </r>
       <r>   -2.6185    0.0000 </r>
       <r>   -2.4080    0.0000 </r>
       <r>   -2.3210    0.0000 </r>
       <r>   -2.1840    0.0000 </r>
       <r>   -2.1756    0.0000 </r>
       <r>   -1.8401    0.0000 </r>
       <r>   -1.7820    0.0000 </r>
       <r>   -1.7347    0.0000 </r>
       <r>   -1.6967    0.0000 </r>
       <r>    2.0250    0.0000 </r>
       <r>    2.2731    0.0000 </r>
       <r>    2.9310    0.0000 </r>
       <r>    2.9639    0.0000 </r>
       <r>    3.1576    0.0000 </r>
       <r>    3.3355    0.0000 </r>
       <r>    3.3885    0.0000 </r>
       <r>    3.4389    0.0000 </r>
      </set>
      <set comment="kpoint 8">
       <r>  -19.6279    1.0000 </r>
       <r>  -19.1691    1.0000 </r>
       <r>  -19.0575    1.0000 </r>
       <r>  -19.0338    1.0000 </r>
       <r>  -18.9193    1.0000 </r>
       <r>  -18.9116    1.0000 </r>
       <r>   -9.2333    1.0000 </r>
       <r>   -8.8225    1.0000 </r>
       <r>   -8.5439    1.0000 </r>
       <r>   -8.4810    1.0000 </r>
       <r>   -8.2846    1.0000 </r>
       <r>   -8.0873    1.0000 </r>
       <r>   -8.0675    1.0000 </r>
       <r>   -7.8521    1.0000 </r>
       <r>   -7.5869    1.0000 </r>
       <r>   -7.3285    1.0000 </r>
       <r>   -7.0198    1.0000 </r>
       <r>   -6.9721    1.0000 </r>
       <r>   -6.7784    1.0000 </r>
       <r>   -6.6703    1.0000 </r>
       <r>   -6.4697    1.0000 </r>
       <r>   -6.2795    1.0000 </r>
       <r>   -6.1447    1.0000 </r>
       <r>   -6.1239    1.0000 </r>
       <r>   -2.6206    0.0000 </r>
       <r>   -2.5945    0.0000 </r>
       <r>   -2.4025    0.0000 </r>
       <r>   -2.3478    0.0000 </r>
       <r>   -2.2022    0.0000 </r>
       <r>   -2.1865    0.0000 </r>
       <r>   -1.8298    0.0000 </r>
       <r>   -1.7577    0.0000 </r>
       <r>   -1.7343    0.0000 </r>
       <r>   -1.7044    0.0000 </r>
       <r>    1.8252    0.0000 </r>
       <r>    2.1332    0.0000 </r>
       <r>    2.7681    0.0000 </r>
       <r>    3.0857    0.0000 </r>
       <r>    3.2217    0.0000 </r>
       <r>    3.2975    0.0000 </r>
       <r>    3.6075    0.0000 </r>
       <r>    3.7317    0.0000 </r>
      </set>
      <set comment="kpoint 9">
       <r>  -19.6279    1.0000 </r>
       <r>  -19.1691    1.0000 </r>
       <r>  -19.0575    1.0000 </r>
       <r>  -19.0338    1.0000 </r>
       <r>  -18.9193    1.0000 </r>
       <r>  -18.9116    1.0000 </r>
       <r>   -9.2333    1.0000 </r>
       <r>   -8.8225    1.0000 </r>
       <r>   -8.5439    1.0000 </r>
       <r>   -8.4810    1.0000 </r>
       <r>   -8.2846    1.0000 </r>
       <r>   -8.0873    1.0000 </r>
       <r>   -8.0675    1.0000 </r>
       <r>   -7.8521    1.0000 </r>
       <r>   -7.5868    1.0000 </r>
       <r>   -7.3285    1.0000 </r>
       <r>   -7.0198    1.0000 </r>
       <r>   -6.9721    1.0000 </r>
       <r>   -6.7784    1.0000 </r>
       <r>   -6.6703    1.0000 </r>
       <r>   -6.4697    1.0000 </r>
       <r>   -6.2795    1.0000 </r>
       <r>   -6.1447    1.0000 </r>
       <r>   -6.1239    1.0000 </r>
       <r>   -2.6206    0.0000 </r>
       <r>   -2.5945    0.0000 </r>
       <r>   -2.4025    0.0000 </r>
       <r>   -2.3478    0.0000 </r>
       <r>   -2.2022    0.0000 </r>
       <r>   -2.1865    0.0000 </r>
       <r>   -1.8298    0.0000 </r>
       <r>   -1.7577    0.0000 </r>
       <r>   -1.7343    0.0000 </r>
       <r>   -1.7044    0.0000 </r>
       <r>    1.8246    0.0000 </r>
       <r>    2.1358    0.0000 </r>
       <r>    2.7574    0.0000 </r>
       <r>    3.0856    0.0000 </r>
       <r>    3.2404    0.0000 </r>
       <r>    3.2903    0.0000 </r>
       <r>    3.6637    0.0000 </r>
       <r>    3.7123    0.0000 </r>
      </set>
      <set comment="kpoint 10">
       <r>  -19.5875    1.0000 </r>
       <r>  -19.2225    1.0000 </r>
       <r>  -19.0414    1.0000 </r>
       <r>  -19.0243    1.0000 </r>
       <r>  -18.9361    1.0000 </r>
       <r>  -18.9132    1.0000 </r>
       <r>   -9.2604    1.0000 </r>
       <r>   -8.7901    1.0000 </r>
       <r>   -8.5836    1.0000 </r>
       <r>   -8.4271    1.0000 </r>
       <r>   -8.2272    1.0000 </r>
       <r>   -8.1398    1.0000 </r>
       <r>   -8.0415    1.0000 </r>
       <r>   -7.7491    1.0000 </r>
       <r>   -7.6120    1.0000 </r>
       <r>   -7.3495    1.0000 </r>
       <r>   -7.0685    1.0000 </r>
       <r>   -6.9783    1.0000 </r>
       <r>   -6.7636    1.0000 </r>
       <r>   -6.6680    1.0000 </r>
       <r>   -6.6073    1.0000 </r>
       <r>   -6.2898    1.0000 </r>
       <r>   -6.1358    1.0000 </r>
       <r>   -6.0386    1.0000 </r>
       <r>   -2.6520    0.0000 </r>
       <r>   -2.6185    0.0000 </r>
       <r>   -2.4080    0.0000 </r>
       <r>   -2.3210    0.0000 </r>
       <r>   -2.1840    0.0000 </r>
       <r>   -2.1756    0.0000 </r>
       <r>   -1.8401    0.0000 </r>
       <r>   -1.7820    0.0000 </r>
       <r>   -1.7347    0.0000 </r>
       <r>   -1.6967    0.0000 </r>
       <r>    2.0250    0.0000 </r>
       <r>    2.2731    0.0000 </r>
       <r>    2.9310    0.0000 </r>
       <r>    2.9639    0.0000 </r>
       <r>    3.1576    0.0000 </r>
       <r>    3.3355    0.0000 </r>
       <r>    3.3884    0.0000 </r>
       <r>    3.4390    0.0000 </r>
      </set>
      <set comment="kpoint 11">
       <r>  -19.4375    1.0000 </r>
       <r>  -19.3427    1.0000 </r>
       <r>  -19.0846    1.0000 </r>
       <r>  -18.9823    1.0000 </r>
       <r>  -18.9628    1.0000 </r>
       <r>  -18.9305    1.0000 </r>
       <r>   -9.0403    1.0000 </r>
       <r>   -8.8555    1.0000 </r>
       <r>   -8.5300    1.0000 </r>
       <r>   -8.4499    1.0000 </r>
       <r>   -8.3890    1.0000 </r>
       <r>   -8.0776    1.0000 </r>
       <r>   -8.0431    1.0000 </r>
       <r>   -7.8112    1.0000 </r>
       <r>   -7.7606    1.0000 </r>
       <r>   -7.3123    1.0000 </r>
       <r>   -7.0978    1.0000 </r>
       <r>   -6.8814    1.0000 </r>
       <r>   -6.7661    1.0000 </r>
       <r>   -6.5657    1.0000 </r>
       <r>   -6.4457    1.0000 </r>
       <r>   -6.3329    1.0000 </r>
       <r>   -6.1599    1.0000 </r>
       <r>   -6.1480    1.0000 </r>
       <r>   -2.6596    0.0000 </r>
       <r>   -2.6495    0.0000 </r>
       <r>   -2.4201    0.0000 </r>
       <r>   -2.4007    0.0000 </r>
       <r>   -2.1784    0.0000 </r>
       <r>   -2.1630    0.0000 </r>
       <r>   -1.8035    0.0000 </r>
       <r>   -1.7512    0.0000 </r>
       <r>   -1.7262    0.0000 </r>
       <r>   -1.6735    0.0000 </r>
       <r>    2.5982    0.0000 </r>
       <r>    2.6673    0.0000 </r>
       <r>    2.8249    0.0000 </r>
       <r>    2.9082    0.0000 </r>
       <r>    2.9563    0.0000 </r>
       <r>    3.3483    0.0000 </r>
       <r>    3.5570    0.0000 </r>
       <r>    3.6197    0.0000 </r>
      </set>
      <set comment="kpoint 12">
       <r>  -19.5167    1.0000 </r>
       <r>  -19.2815    1.0000 </r>
       <r>  -19.0545    1.0000 </r>
       <r>  -19.0074    1.0000 </r>
       <r>  -18.9527    1.0000 </r>
       <r>  -18.9213    1.0000 </r>
       <r>   -9.1995    1.0000 </r>
       <r>   -8.7856    1.0000 </r>
       <r>   -8.5807    1.0000 </r>
       <r>   -8.4260    1.0000 </r>
       <r>   -8.2517    1.0000 </r>
       <r>   -8.1465    1.0000 </r>
       <r>   -8.0295    1.0000 </r>
       <r>   -7.7844    1.0000 </r>
       <r>   -7.5363    1.0000 </r>
       <r>   -7.3394    1.0000 </r>
       <r>   -7.2584    1.0000 </r>
       <r>   -6.9492    1.0000 </r>
       <r>   -6.7161    1.0000 </r>
       <r>   -6.6636    1.0000 </r>
       <r>   -6.5063    1.0000 </r>
       <r>   -6.3101    1.0000 </r>
       <r>   -6.1512    1.0000 </r>
       <r>   -6.0625    1.0000 </r>
       <r>   -2.6622    0.0000 </r>
       <r>   -2.6492    0.0000 </r>
       <r>   -2.4061    0.0000 </r>
       <r>   -2.3583    0.0000 </r>
       <r>   -2.1744    0.0000 </r>
       <r>   -2.1603    0.0000 </r>
       <r>   -1.8352    0.0000 </r>
       <r>   -1.7709    0.0000 </r>
       <r>   -1.7098    0.0000 </r>
       <r>   -1.7063    0.0000 </r>
       <r>    2.3537    0.0000 </r>
       <r>    2.5316    0.0000 </r>
       <r>    2.8326    0.0000 </r>
       <r>    2.9051    0.0000 </r>
       <r>    3.0770    0.0000 </r>
       <r>    3.2516    0.0000 </r>
       <r>    3.3383    0.0000 </r>
       <r>    3.6995    0.0000 </r>
      </set>
      <set comment="kpoint 13">
       <r>  -19.7772    1.0000 </r>
       <r>  -19.1163    1.0000 </r>
       <r>  -19.0180    1.0000 </r>
       <r>  -18.9917    1.0000 </r>
       <r>  -18.8913    1.0000 </r>
       <r>  -18.8892    1.0000 </r>
       <r>   -9.2828    1.0000 </r>
       <r>   -8.8443    1.0000 </r>
       <r>   -8.4690    1.0000 </r>
       <r>   -8.3968    1.0000 </r>
       <r>   -8.3646    1.0000 </r>
       <r>   -8.3256    1.0000 </r>
       <r>   -8.0600    1.0000 </r>
       <r>   -7.8299    1.0000 </r>
       <r>   -7.7825    1.0000 </r>
       <r>   -7.2542    1.0000 </r>
       <r>   -7.1561    1.0000 </r>
       <r>   -7.1454    1.0000 </r>
       <r>   -6.7735    1.0000 </r>
       <r>   -6.4587    1.0000 </r>
       <r>   -6.2357    1.0000 </r>
       <r>   -6.1781    1.0000 </r>
       <r>   -6.1629    1.0000 </r>
       <r>   -6.0513    1.0000 </r>
       <r>   -2.5584    0.0000 </r>
       <r>   -2.4816    0.0000 </r>
       <r>   -2.4313    0.0000 </r>
       <r>   -2.3623    0.0000 </r>
       <r>   -2.2615    0.0000 </r>
       <r>   -2.2375    0.0000 </r>
       <r>   -1.7722    0.0000 </r>
       <r>   -1.7701    0.0000 </r>
       <r>   -1.7065    0.0000 </r>
       <r>   -1.6731    0.0000 </r>
       <r>    1.1526    0.0000 </r>
       <r>    1.6786    0.0000 </r>
       <r>    2.2420    0.0000 </r>
       <r>    2.6640    0.0000 </r>
       <r>    3.0102    0.0000 </r>
       <r>    3.3566    0.0000 </r>
       <r>    3.4275    0.0000 </r>
       <r>    4.0836    0.0000 </r>
      </set>
      <set comment="kpoint 14">
       <r>  -19.6279    1.0000 </r>
       <r>  -19.1689    1.0000 </r>
       <r>  -19.0576    1.0000 </r>
       <r>  -19.0338    1.0000 </r>
       <r>  -18.9192    1.0000 </r>
       <r>  -18.9117    1.0000 </r>
       <r>   -9.2333    1.0000 </r>
       <r>   -8.8226    1.0000 </r>
       <r>   -8.5441    1.0000 </r>
       <r>   -8.4810    1.0000 </r>
       <r>   -8.2846    1.0000 </r>
       <r>   -8.0872    1.0000 </r>
       <r>   -8.0675    1.0000 </r>
       <r>   -7.8519    1.0000 </r>
       <r>   -7.5868    1.0000 </r>
       <r>   -7.3286    1.0000 </r>
       <r>   -7.0199    1.0000 </r>
       <r>   -6.9718    1.0000 </r>
       <r>   -6.7788    1.0000 </r>
       <r>   -6.6705    1.0000 </r>
       <r>   -6.4697    1.0000 </r>
       <r>   -6.2793    1.0000 </r>
       <r>   -6.1446    1.0000 </r>
       <r>   -6.1238    1.0000 </r>
       <r>   -2.6205    0.0000 </r>
       <r>   -2.5945    0.0000 </r>
       <r>   -2.4025    0.0000 </r>
       <r>   -2.3477    0.0000 </r>
       <r>   -2.2023    0.0000 </r>
       <r>   -2.1864    0.0000 </r>
       <r>   -1.8297    0.0000 </r>
       <r>   -1.7578    0.0000 </r>
       <r>   -1.7342    0.0000 </r>
       <r>   -1.7046    0.0000 </r>
       <r>    1.8251    0.0000 </r>
       <r>    2.1331    0.0000 </r>
       <r>    2.7680    0.0000 </r>
       <r>    3.0857    0.0000 </r>
       <r>    3.2216    0.0000 </r>
       <r>    3.2974    0.0000 </r>
       <r>    3.6074    0.0000 </r>
       <r>    3.7316    0.0000 </r>
      </set>
      <set comment="kpoint 15">
       <r>  -19.5169    1.0000 </r>
       <r>  -19.2813    1.0000 </r>
       <r>  -19.0545    1.0000 </r>
       <r>  -19.0075    1.0000 </r>
       <r>  -18.9525    1.0000 </r>
       <r>  -18.9214    1.0000 </r>
       <r>   -9.1995    1.0000 </r>
       <r>   -8.7858    1.0000 </r>
       <r>   -8.5809    1.0000 </r>
       <r>   -8.4259    1.0000 </r>
       <r>   -8.2516    1.0000 </r>
       <r>   -8.1463    1.0000 </r>
       <r>   -8.0295    1.0000 </r>
       <r>   -7.7844    1.0000 </r>
       <r>   -7.5364    1.0000 </r>
       <r>   -7.3394    1.0000 </r>
       <r>   -7.2585    1.0000 </r>
       <r>   -6.9488    1.0000 </r>
       <r>   -6.7163    1.0000 </r>
       <r>   -6.6637    1.0000 </r>
       <r>   -6.5065    1.0000 </r>
       <r>   -6.3100    1.0000 </r>
[...]
       <r>    -1.7225     0.0000    34.0000 </r>
       <r>    -1.6350     0.0000    34.0000 </r>
       <r>    -1.5475     0.0000    34.0000 </r>
       <r>    -1.4600     0.0000    34.0000 </r>
       <r>    -1.3725     0.0000    34.0000 </r>
       <r>    -1.2850     0.0000    34.0000 </r>
       <r>    -1.1976     0.0000    34.0000 </r>
       <r>    -1.1101     0.0000    34.0000 </r>
       <r>    -1.0226     0.0000    34.0000 </r>
       <r>    -0.9351     0.0000    34.0000 </r>
       <r>    -0.8476     0.0000    34.0000 </r>
       <r>    -0.7601     0.0000    34.0000 </r>
       <r>    -0.6726     0.0000    34.0000 </r>
       <r>    -0.5851     0.0000    34.0000 </r>
       <r>    -0.4976     0.0000    34.0000 </r>
       <r>    -0.4101     0.0000    34.0000 </r>
       <r>    -0.3227     0.0000    34.0000 </r>
       <r>    -0.2352     0.0000    34.0000 </r>
       <r>    -0.1477     0.0000    34.0000 </r>
       <r>    -0.0602     0.0000    34.0000 </r>
       <r>     0.0273     0.0000    34.0000 </r>
       <r>     0.1148     0.0000    34.0000 </r>
       <r>     0.2023     0.0000    34.0000 </r>
       <r>     0.2898     0.0000    34.0000 </r>
       <r>     0.3773     0.0000    34.0000 </r>
       <r>     0.4647     0.0000    34.0000 </r>
       <r>     0.5522     0.0000    34.0000 </r>
       <r>     0.6397     0.0000    34.0000 </r>
       <r>     0.7272     0.0000    34.0000 </r>
       <r>     0.8147     0.0000    34.0000 </r>
       <r>     0.9022     0.0095    34.0008 </r>
       <r>     0.9897     0.7042    34.0624 </r>
       <r>     1.0772     0.7055    34.1242 </r>
       <r>     1.1647     0.0154    34.1255 </r>
       <r>     1.2522     0.6108    34.1789 </r>
       <r>     1.3396     0.7969    34.2487 </r>
       <r>     1.4271     0.0152    34.2500 </r>
       <r>     1.5146     0.0001    34.2500 </r>
       <r>     1.6021     0.1051    34.2592 </r>
       <r>     1.6896     1.9513    34.4299 </r>
       <r>     1.7771     2.3679    34.6371 </r>
       <r>     1.8646     1.2669    34.7479 </r>
       <r>     1.9521     1.1951    34.8525 </r>
       <r>     2.0396     0.3895    34.8866 </r>
       <r>     2.1271     2.1576    35.0753 </r>
       <r>     2.2145     2.2206    35.2696 </r>
       <r>     2.3020     3.7850    35.6007 </r>
       <r>     2.3895     4.4771    35.9924 </r>
       <r>     2.4770     5.5138    36.4748 </r>
       <r>     2.5645     4.6663    36.8831 </r>
       <r>     2.6520     3.2734    37.1695 </r>
       <r>     2.7395     6.7296    37.7583 </r>
       <r>     2.8270     6.5752    38.3335 </r>
       <r>     2.9145     2.9635    38.5928 </r>
       <r>     3.0019     5.7143    39.0927 </r>
       <r>     3.0894     6.1350    39.6295 </r>
       <r>     3.1769     6.8185    40.2260 </r>
       <r>     3.2644     5.9463    40.7463 </r>
       <r>     3.3519     4.3662    41.1283 </r>
       <r>     3.4394     2.7684    41.3705 </r>
       <r>     3.5269     3.4970    41.6764 </r>
       <r>     3.6144     2.1752    41.8667 </r>
       <r>     3.7019     0.0945    41.8750 </r>
       <r>     3.7894     0.0001    41.8750 </r>
       <r>     3.8768     0.1356    41.8869 </r>
       <r>     3.9643     1.1184    41.9847 </r>
       <r>     4.0518     0.1745    42.0000 </r>
       <r>     4.1393     0.0002    42.0000 </r>
       <r>     4.2268     0.0000    42.0000 </r>
       <r>     4.3143     0.0000    42.0000 </r>
       <r>     4.4018     0.0000    42.0000 </r>
       <r>     4.4893     0.0000    42.0000 </r>
       <r>     4.5768     0.0000    42.0000 </r>
       <r>     4.6642     0.0000    42.0000 </r>
       <r>     4.7517     0.0000    42.0000 </r>
       <r>     4.8392     0.0000    42.0000 </r>
       <r>     4.9267     0.0000    42.0000 </r>
       <r>     5.0142     0.0000    42.0000 </r>
       <r>     5.1017     0.0000    42.0000 </r>
       <r>     5.1892     0.0000    42.0000 </r>
       <r>     5.2767     0.0000    42.0000 </r>
      </set>
      <set comment="spin 2">
       <r>   -20.9702     0.0000     0.0000 </r>
       <r>   -20.8827     0.0000     0.0000 </r>
       <r>   -20.7952     0.0000     0.0000 </r>
       <r>   -20.7077     0.0000     0.0000 </r>
       <r>   -20.6202     0.0000     0.0000 </r>
       <r>   -20.5328     0.0000     0.0000 </r>
       <r>   -20.4453     0.0000     0.0000 </r>
       <r>   -20.3578     0.0000     0.0000 </r>
       <r>   -20.2703     0.0000     0.0000 </r>
       <r>   -20.1828     0.0000     0.0000 </r>
       <r>   -20.0953     0.0000     0.0000 </r>
       <r>   -20.0078     0.0000     0.0000 </r>
       <r>   -19.9203     0.0000     0.0000 </r>
       <r>   -19.8328     0.0839     0.0073 </r>
       <r>   -19.7453     1.4756     0.1364 </r>
       <r>   -19.6579     1.8544     0.2987 </r>
       <r>   -19.5704     3.3188     0.5890 </r>
       <r>   -19.4829     2.9271     0.8451 </r>
       <r>   -19.3954     1.7015     0.9940 </r>
       <r>   -19.3079     1.9233     1.1623 </r>
       <r>   -19.2204     3.2699     1.4483 </r>
       <r>   -19.1329     3.9322     1.7924 </r>
       <r>   -19.0454    11.3076     2.7817 </r>
       <r>   -18.9579    17.0333     4.2719 </r>
       <r>   -18.8704    17.2202     5.7785 </r>
       <r>   -18.7830     2.5260     5.9995 </r>
       <r>   -18.6955     0.0058     6.0000 </r>
       <r>   -18.6080     0.0000     6.0000 </r>
       <r>   -18.5205     0.0000     6.0000 </r>
       <r>   -18.4330     0.0000     6.0000 </r>
       <r>   -18.3455     0.0000     6.0000 </r>
       <r>   -18.2580     0.0000     6.0000 </r>
       <r>   -18.1705     0.0000     6.0000 </r>
       <r>   -18.0830     0.0000     6.0000 </r>
       <r>   -17.9956     0.0000     6.0000 </r>
       <r>   -17.9081     0.0000     6.0000 </r>
       <r>   -17.8206     0.0000     6.0000 </r>
       <r>   -17.7331     0.0000     6.0000 </r>
       <r>   -17.6456     0.0000     6.0000 </r>
       <r>   -17.5581     0.0000     6.0000 </r>
       <r>   -17.4706     0.0000     6.0000 </r>
       <r>   -17.3831     0.0000     6.0000 </r>
       <r>   -17.2956     0.0000     6.0000 </r>
       <r>   -17.2081     0.0000     6.0000 </r>
       <r>   -17.1207     0.0000     6.0000 </r>
       <r>   -17.0332     0.0000     6.0000 </r>
       <r>   -16.9457     0.0000     6.0000 </r>
       <r>   -16.8582     0.0000     6.0000 </r>
       <r>   -16.7707     0.0000     6.0000 </r>
       <r>   -16.6832     0.0000     6.0000 </r>
       <r>   -16.5957     0.0000     6.0000 </r>
       <r>   -16.5082     0.0000     6.0000 </r>
       <r>   -16.4207     0.0000     6.0000 </r>
       <r>   -16.3333     0.0000     6.0000 </r>
       <r>   -16.2458     0.0000     6.0000 </r>
       <r>   -16.1583     0.0000     6.0000 </r>
       <r>   -16.0708     0.0000     6.0000 </r>
       <r>   -15.9833     0.0000     6.0000 </r>
       <r>   -15.8958     0.0000     6.0000 </r>
       <r>   -15.8083     0.0000     6.0000 </r>
       <r>   -15.7208     0.0000     6.0000 </r>
       <r>   -15.6333     0.0000     6.0000 </r>
       <r>   -15.5458     0.0000     6.0000 </r>
       <r>   -15.4584     0.0000     6.0000 </r>
       <r>   -15.3709     0.0000     6.0000 </r>
       <r>   -15.2834     0.0000     6.0000 </r>
       <r>   -15.1959     0.0000     6.0000 </r>
       <r>   -15.1084     0.0000     6.0000 </r>
       <r>   -15.0209     0.0000     6.0000 </r>
       <r>   -14.9334     0.0000     6.0000 </r>
       <r>   -14.8459     0.0000     6.0000 </r>
       <r>   -14.7584     0.0000     6.0000 </r>
       <r>   -14.6709     0.0000     6.0000 </r>
       <r>   -14.5835     0.0000     6.0000 </r>
       <r>   -14.4960     0.0000     6.0000 </r>
       <r>   -14.4085     0.0000     6.0000 </r>
       <r>   -14.3210     0.0000     6.0000 </r>
       <r>   -14.2335     0.0000     6.0000 </r>
       <r>   -14.1460     0.0000     6.0000 </r>
       <r>   -14.0585     0.0000     6.0000 </r>
       <r>   -13.9710     0.0000     6.0000 </r>
       <r>   -13.8835     0.0000     6.0000 </r>
       <r>   -13.7961     0.0000     6.0000 </r>
       <r>   -13.7086     0.0000     6.0000 </r>
       <r>   -13.6211     0.0000     6.0000 </r>
       <r>   -13.5336     0.0000     6.0000 </r>
       <r>   -13.4461     0.0000     6.0000 </r>
       <r>   -13.3586     0.0000     6.0000 </r>
       <r>   -13.2711     0.0000     6.0000 </r>
       <r>   -13.1836     0.0000     6.0000 </r>
       <r>   -13.0961     0.0000     6.0000 </r>
       <r>   -13.0086     0.0000     6.0000 </r>
       <r>   -12.9212     0.0000     6.0000 </r>
       <r>   -12.8337     0.0000     6.0000 </r>
       <r>   -12.7462     0.0000     6.0000 </r>
       <r>   -12.6587     0.0000     6.0000 </r>
       <r>   -12.5712     0.0000     6.0000 </r>
       <r>   -12.4837     0.0000     6.0000 </r>
       <r>   -12.3962     0.0000     6.0000 </r>
       <r>   -12.3087     0.0000     6.0000 </r>
       <r>   -12.2212     0.0000     6.0000 </r>
       <r>   -12.1338     0.0000     6.0000 </r>
       <r>   -12.0463     0.0000     6.0000 </r>
       <r>   -11.9588     0.0000     6.0000 </r>
       <r>   -11.8713     0.0000     6.0000 </r>
       <r>   -11.7838     0.0000     6.0000 </r>
       <r>   -11.6963     0.0000     6.0000 </r>
       <r>   -11.6088     0.0000     6.0000 </r>
       <r>   -11.5213     0.0000     6.0000 </r>
       <r>   -11.4338     0.0000     6.0000 </r>
       <r>   -11.3463     0.0000     6.0000 </r>
       <r>   -11.2589     0.0000     6.0000 </r>
       <r>   -11.1714     0.0000     6.0000 </r>
       <r>   -11.0839     0.0000     6.0000 </r>
       <r>   -10.9964     0.0000     6.0000 </r>
       <r>   -10.9089     0.0000     6.0000 </r>
       <r>   -10.8214     0.0000     6.0000 </r>
       <r>   -10.7339     0.0000     6.0000 </r>
       <r>   -10.6464     0.0000     6.0000 </r>
       <r>   -10.5589     0.0000     6.0000 </r>
       <r>   -10.4714     0.0000     6.0000 </r>
       <r>   -10.3840     0.0000     6.0000 </r>
       <r>   -10.2965     0.0000     6.0000 </r>
       <r>   -10.2090     0.0000     6.0000 </r>
       <r>   -10.1215     0.0000     6.0000 </r>
       <r>   -10.0340     0.0000     6.0000 </r>
       <r>    -9.9465     0.0000     6.0000 </r>
       <r>    -9.8590     0.0000     6.0000 </r>
       <r>    -9.7715     0.0000     6.0000 </r>
       <r>    -9.6840     0.0000     6.0000 </r>
       <r>    -9.5966     0.0000     6.0000 </r>
       <r>    -9.5091     0.0000     6.0000 </r>
       <r>    -9.4216     0.0001     6.0000 </r>
       <r>    -9.3341     0.2068     6.0181 </r>
       <r>    -9.2466     4.3363     6.3975 </r>
       <r>    -9.1591     5.0409     6.8385 </r>
       <r>    -9.0716     0.6852     6.8985 </r>
       <r>    -8.9841     1.0809     6.9930 </r>
       <r>    -8.8966     0.4614     7.0334 </r>
       <r>    -8.8091     6.1816     7.5742 </r>
       <r>    -8.7217     4.7209     7.9872 </r>
       <r>    -8.6342     0.4595     8.0275 </r>
       <r>    -8.5467     5.2899     8.4903 </r>
       <r>    -8.4592     9.3853     9.3114 </r>
       <r>    -8.3717     9.2277    10.1187 </r>
       <r>    -8.2842     6.1582    10.6575 </r>
       <r>    -8.1967     6.2577    11.2050 </r>
       <r>    -8.1092     5.7075    11.7043 </r>
       <r>    -8.0217    10.7587    12.6456 </r>
       <r>    -7.9343     3.8443    12.9819 </r>
       <r>    -7.8468     4.0613    13.3373 </r>
       <r>    -7.7593     8.4535    14.0769 </r>
       <r>    -7.6718     3.4568    14.3793 </r>
       <r>    -7.5843     2.8310    14.6270 </r>
       <r>    -7.4968     3.8711    14.9657 </r>
       <r>    -7.4093     0.5621    15.0148 </r>
       <r>    -7.3218     5.3556    15.4834 </r>
       <r>    -7.2343     7.3674    16.1280 </r>
       <r>    -7.1468     3.0951    16.3988 </r>
       <r>    -7.0594     4.4742    16.7902 </r>
       <r>    -6.9719     7.5779    17.4532 </r>
       <r>    -6.8844     5.3710    17.9231 </r>
       <r>    -6.7969     2.8419    18.1717 </r>
       <r>    -6.7094     8.6874    18.9318 </r>
       <r>    -6.6219     7.9457    19.6270 </r>
       <r>    -6.5344     4.5798    20.0277 </r>
       <r>    -6.4469     6.1201    20.5631 </r>
       <r>    -6.3594     3.1066    20.8349 </r>
       <r>    -6.2719     7.8238    21.5194 </r>
       <r>    -6.1845     6.9099    22.1239 </r>
       <r>    -6.0970    14.2902    23.3742 </r>
       <r>    -6.0095     6.4935    23.9423 </r>
       <r>    -5.9220     0.6586    23.9999 </r>
       <r>    -5.8345     0.0010    24.0000 </r>
       <r>    -5.7470     0.0000    24.0000 </r>
       <r>    -5.6595     0.0000    24.0000 </r>
       <r>    -5.5720     0.0000    24.0000 </r>
       <r>    -5.4845     0.0000    24.0000 </r>
       <r>    -5.3971     0.0000    24.0000 </r>
       <r>    -5.3096     0.0000    24.0000 </r>
       <r>    -5.2221     0.0000    24.0000 </r>
       <r>    -5.1346     0.0000    24.0000 </r>
       <r>    -5.0471     0.0000    24.0000 </r>
       <r>    -4.9596     0.0000    24.0000 </r>
       <r>    -4.8721     0.0000    24.0000 </r>
       <r>    -4.7846     0.0000    24.0000 </r>
       <r>    -4.6971     0.0000    24.0000 </r>
       <r>    -4.6096     0.0000    24.0000 </r>
       <r>    -4.5222     0.0000    24.0000 </r>
       <r>    -4.4347     0.0000    24.0000 </r>
       <r>    -4.3472     0.0000    24.0000 </r>
       <r>    -4.2597     0.0000    24.0000 </r>
       <r>    -4.1722     0.0000    24.0000 </r>
       <r>    -4.0847     0.0000    24.0000 </r>
       <r>    -3.9972     0.0000    24.0000 </r>
       <r>    -3.9097     0.0000    24.0000 </r>
       <r>    -3.8222     0.0000    24.0000 </r>
       <r>    -3.7348     0.0000    24.0000 </r>
       <r>    -3.6473     0.0000    24.0000 </r>
       <r>    -3.5598     0.0000    24.0000 </r>
       <r>    -3.4723     0.0000    24.0000 </r>
       <r>    -3.3848     0.0000    24.0000 </r>
       <r>    -3.2973     0.0000    24.0000 </r>
       <r>    -3.2098     0.0000    24.0000 </r>
       <r>    -3.1223     0.0000    24.0000 </r>
       <r>    -3.0348     0.0000    24.0000 </r>
       <r>    -2.9473     0.0000    24.0000 </r>
       <r>    -2.8599     0.0000    24.0000 </r>
       <r>    -2.7724     0.0052    24.0005 </r>
       <r>    -2.6849     2.1622    24.1896 </r>
       <r>    -2.5974    12.5436    25.2871 </r>
       <r>    -2.5099     6.3303    25.8409 </r>
       <r>    -2.4224     6.7120    26.4281 </r>
       <r>    -2.3349    13.8567    27.6404 </r>
       <r>    -2.2474     7.3476    28.2833 </r>
       <r>    -2.1599    14.2573    29.5307 </r>
       <r>    -2.0724     5.3253    29.9966 </r>
       <r>    -1.9850     0.0394    30.0000 </r>
       <r>    -1.8975     0.2772    30.0243 </r>
       <r>    -1.8100     7.8156    30.7080 </r>
       <r>    -1.7225    21.7541    32.6113 </r>
       <r>    -1.6350    15.0821    33.9308 </r>
       <r>    -1.5475     0.7901    33.9999 </r>
       <r>    -1.4600     0.0006    34.0000 </r>
       <r>    -1.3725     0.0000    34.0000 </r>
       <r>    -1.2850     0.0000    34.0000 </r>
       <r>    -1.1976     0.0000    34.0000 </r>
       <r>    -1.1101     0.0000    34.0000 </r>
       <r>    -1.0226     0.0000    34.0000 </r>
       <r>    -0.9351     0.0000    34.0000 </r>
       <r>    -0.8476     0.0000    34.0000 </r>
       <r>    -0.7601     0.0000    34.0000 </r>
       <r>    -0.6726     0.0000    34.0000 </r>
       <r>    -0.5851     0.0000    34.0000 </r>
       <r>    -0.4976     0.0000    34.0000 </r>
       <r>    -0.4101     0.0000    34.0000 </r>
       <r>    -0.3227     0.0000    34.0000 </r>
       <r>    -0.2352     0.0000    34.0000 </r>
       <r>    -0.1477     0.0000    34.0000 </r>
       <r>    -0.0602     0.0000    34.0000 </r>
       <r>     0.0273     0.0000    34.0000 </r>
       <r>     0.1148     0.0000    34.0000 </r>
       <r>     0.2023     0.0000    34.0000 </r>
       <r>     0.2898     0.0000    34.0000 </r>
       <r>     0.3773     0.0000    34.0000 </r>
       <r>     0.4647     0.0000    34.0000 </r>
       <r>     0.5522     0.0000    34.0000 </r>
       <r>     0.6397     0.0000    34.0000 </r>
       <r>     0.7272     0.0000    34.0000 </r>
       <r>     0.8147     0.0000    34.0000 </r>
       <r>     0.9022     0.0000    34.0000 </r>
       <r>     0.9897     0.0000    34.0000 </r>
       <r>     1.0772     0.0236    34.0021 </r>
       <r>     1.1647     0.8823    34.0793 </r>
       <r>     1.2522     0.5195    34.1247 </r>
       <r>     1.3396     0.0616    34.1301 </r>
       <r>     1.4271     1.0390    34.2210 </r>
       <r>     1.5146     0.3306    34.2499 </r>
       <r>     1.6021     0.0227    34.2519 </r>
       <r>     1.6896     0.8668    34.3277 </r>
       <r>     1.7771     0.8420    34.4014 </r>
       <r>     1.8646     3.2608    34.6867 </r>
       <r>     1.9521     0.7500    34.7523 </r>
       <r>     2.0396     0.9268    34.8334 </r>
       <r>     2.1271     1.6655    34.9791 </r>
       <r>     2.2145     2.0161    35.1555 </r>
       <r>     2.3020     2.3710    35.3629 </r>
       <r>     2.3895     2.8421    35.6116 </r>
       <r>     2.4770     1.6519    35.7561 </r>
       <r>     2.5645     2.4793    35.9730 </r>
       <r>     2.6520     2.6612    36.2059 </r>
       <r>     2.7395     2.6442    36.4372 </r>
       <r>     2.8270     4.2869    36.8123 </r>
       <r>     2.9145     6.6421    37.3934 </r>
       <r>     3.0019     5.7398    37.8955 </r>
       <r>     3.0894     4.5106    38.2902 </r>
       <r>     3.1769     3.6493    38.6094 </r>
       <r>     3.2644     5.3709    39.0793 </r>
       <r>     3.3519    10.2526    39.9763 </r>
       <r>     3.4394     6.0452    40.5052 </r>
       <r>     3.5269     1.7175    40.6555 </r>
       <r>     3.6144     3.7999    40.9879 </r>
       <r>     3.7019     5.5039    41.4695 </r>
       <r>     3.7894     4.4093    41.8553 </r>
       <r>     3.8768     0.2256    41.8750 </r>
       <r>     3.9643     0.0006    41.8750 </r>
       <r>     4.0518     0.2625    41.8980 </r>
       <r>     4.1393     1.0833    41.9928 </r>
       <r>     4.2268     0.0823    42.0000 </r>
       <r>     4.3143     0.0000    42.0000 </r>
       <r>     4.4018     0.0000    42.0000 </r>
       <r>     4.4893     0.0000    42.0000 </r>
       <r>     4.5768     0.0000    42.0000 </r>
       <r>     4.6642     0.0000    42.0000 </r>
       <r>     4.7517     0.0000    42.0000 </r>
       <r>     4.8392     0.0000    42.0000 </r>
       <r>     4.9267     0.0000    42.0000 </r>
       <r>     5.0142     0.0000    42.0000 </r>
       <r>     5.1017     0.0000    42.0000 </r>
       <r>     5.1892     0.0000    42.0000 </r>
       <r>     5.2767     0.0000    42.0000 </r>
      </set>
     </set>
    </array>
   </total>
  </dos>
 </calculation>
 <structure name="finalpos" >
  <crystal>
   <varray name="basis" >
    <v>       6.15408800      -0.00274500       0.00061100 </v>
    <v>      -3.07942100       5.32782100       0.00067500 </v>
    <v>       0.00231000       0.00427900      22.81863100 </v>
   </varray>
   <i name="volume">    747.98159913 </i>
   <varray name="rec_basis" >
    <v>       0.16253552       0.09394372      -0.00003407 </v>
    <v>       0.00008375       0.18774240      -0.00003521 </v>
    <v>      -0.00000435      -0.00000807       0.04382384 </v>
   </varray>
  </crystal>
  <varray name="positions" >
   <v>       0.66673659       0.33327152       0.50000103 </v>
   <v>       0.99993200       0.00005715       0.49999678 </v>
   <v>       0.33303677       0.02431524       0.55991412 </v>
   <v>       0.97615759       0.30949873       0.55971000 </v>
   <v>       0.69101020       0.66638828       0.55992133 </v>
   <v>       0.69052433       0.02381943       0.44029028 </v>
   <v>       0.33361264       0.30901660       0.44008514 </v>
   <v>       0.97565723       0.66696118       0.44007979 </v>
  </varray>
 </structure>
</modeling>
