 vasp.6.5.1 10Mar25 (build Apr 08 2025 20:07:02) complex                        
  
 executed on             LinuxIFC date 2025.06.10  22:16:33
 running   42 mpi-ranks, on    1 nodes
 distrk:  each k-point on   42 cores,    1 groups
 distr:  one band on NCORE=   1 cores,   42 groups


--------------------------------------------------------------------------------------------------------


 INCAR:
   SYSTEM = CrCl3 Convergência
   PREC = Accurate
   ISMEAR = 0
   SIGMA = 0.05
   ENCUT = 450
   ISPIN = 2
   MAGMOM = 2*3.0 6*0.6
   EDIFF = 1E-6
   IBRION = -1
   NSW = 0
   LWAVE = .FALSE.
   LCHARG = .FALSE.

 POTCAR:    PAW_PBE Cr 06Sep2000                  
 POTCAR:    PAW_PBE Cl 06Sep2000                  
 -----------------------------------------------------------------------------
|                                                                             |
|           W    W    AA    RRRRR   N    N  II  N    N   GGGG   !!!           |
|           W    W   A  A   R    R  NN   N  II  NN   N  G    G  !!!           |
|           W    W  A    A  R    R  N N  N  II  N N  N  G       !!!           |
|           W WW W  AAAAAA  RRRRR   N  N N  II  N  N N  G  GGG   !            |
|           WW  WW  A    A  R   R   N   NN  II  N   NN  G    G                |
|           W    W  A    A  R    R  N    N  II  N    N   GGGG   !!!           |
|                                                                             |
|     For optimal performance we recommend to set                             |
|       NCORE = 2 up to number-of-cores-per-socket                            |
|     NCORE specifies how many cores store one orbital (NPAR=cpu/NCORE).      |
|     This setting can greatly improve the performance of VASP for DFT.       |
|     The default, NCORE=1 might be grossly inefficient on modern             |
|     multi-core architectures or massively parallel machines. Do your        |
|     own testing! More info at https://www.vasp.at/wiki/index.php/NCORE      |
|     Unfortunately you need to use the default for GW and RPA                |
|     calculations (for HF NCORE is supported but not extensively tested      |
|     yet).                                                                   |
|                                                                             |
 -----------------------------------------------------------------------------

 POTCAR:    PAW_PBE Cr 06Sep2000                  
   SHA256 =  56e7271fac8042f322b235801e26979132a24da65eb043fa6a03029023cb2fcc Cr/POTCAR             
   COPYR  = (c) Copyright 06Sep2000 Georg Kresse                                                    
   COPYR  = This file is part of the software VASP. Any use, copying, and all other rights are regul
   COPYR  = If you do not have a valid VASP license, you may not use, copy or distribute this file. 
   VRHFIN =Cr : d5 s1                                                                               
   LEXCH  = PE                                                                                      
   EATOM  =   276.8859 eV,   20.3505 Ry                                                             
                                                                                                    
   TITEL  = PAW_PBE Cr 06Sep2000                                                                    
   LULTRA =        F    use ultrasoft PP ?                                                          
   IUNSCR =        1    unscreen: 0-lin 1-nonlin 2-no                                               
   RPACOR =    2.080    partial core radius                                                         
   POMASS =   51.996; ZVAL   =    6.000    mass and valenz                                          
   RCORE  =    2.500    outmost cutoff radius                                                       
   RWIGS  =    2.500; RWIGS  =    1.323    wigner-seitz radius (au A)                               
   ENMAX  =  227.080; ENMIN  =  170.310 eV                                                          
   RCLOC  =    1.721    cutoff for local pot                                                        
   LCOR   =        T    correct aug charges                                                         
   LPAW   =        T    paw PP                                                                      
   EAUG   =  402.108                                                                                
   DEXC   =    0.000                                                                                
   RMAX   =    2.552    core radius for proj-oper                                                   
   RAUG   =    1.300    factor for augmentation sphere                                              
   RDEP   =    2.609    radius for radial grids                                                     
   RDEPT  =    2.065    core radius for aug-charge                                                  
                                                                                                    
   Atomic configuration                                                                             
    9 entries                                                                                       
     n  l   j            E        occ.                                                              
     1  0  0.50     -5880.4963   2.0000                                                             
     2  0  0.50      -667.0865   2.0000                                                             
     2  1  1.50      -560.6250   6.0000                                                             
     3  0  0.50       -73.9860   2.0000                                                             
     3  1  1.50       -45.4378   6.0000                                                             
     3  2  2.50        -2.9137   5.0000                                                             
     4  0  0.50        -4.0071   1.0000                                                             
     4  1  0.50        -1.2789   0.0000                                                             
     4  3  2.50        -1.3606   0.0000                                                             
   Description                                                                                      
     l       E           TYP  RCUT    TYP  RCUT                                                     
     2     -2.9136677     23  2.500                                                                 
     2     -4.2742503     23  2.500                                                                 
     0     -4.0071322     23  2.500                                                                 
     0      9.4498801     23  2.500                                                                 
     1     -5.4423304     23  2.500                                                                 
     1     27.2116520     23  2.500                                                                 
  local pseudopotential read in
  partial core-charges read in
  partial kinetic energy density read in
  atomic valenz-charges read in
  non local Contribution for L=           2  read in
    real space projection operators read in
  non local Contribution for L=           2  read in
    real space projection operators read in
  non local Contribution for L=           0  read in
    real space projection operators read in
  non local Contribution for L=           0  read in
    real space projection operators read in
  non local Contribution for L=           1  read in
    real space projection operators read in
  non local Contribution for L=           1  read in
    real space projection operators read in
    PAW grid and wavefunctions read in
 
   number of l-projection  operators is LMAX  =           6
   number of lm-projection operators is LMMAX =          18
 
 POTCAR:    PAW_PBE Cl 06Sep2000                  
   SHA256 =  9f1b6e6ed4247ac726a768b330d26d7667cc3c95a39ff49c1d064c2d9dcce931 Cl/POTCAR             
   COPYR  = (c) Copyright 06Sep2000 Georg Kresse                                                    
   COPYR  = This file is part of the software VASP. Any use, copying, and all other rights are regul
   COPYR  = If you do not have a valid VASP license, you may not use, copy or distribute this file. 
   VRHFIN =Cl: s2p5                                                                                 
   LEXCH  = PE                                                                                      
   EATOM  =   409.7259 eV,   30.1140 Ry                                                             
                                                                                                    
   TITEL  = PAW_PBE Cl 06Sep2000                                                                    
   LULTRA =        F    use ultrasoft PP ?                                                          
   IUNSCR =        1    unscreen: 0-lin 1-nonlin 2-no                                               
   RPACOR =    1.500    partial core radius                                                         
   POMASS =   35.453; ZVAL   =    7.000    mass and valenz                                          
   RCORE  =    1.900    outmost cutoff radius                                                       
   RWIGS  =    2.100; RWIGS  =    1.111    wigner-seitz radius (au A)                               
   ENMAX  =  262.472; ENMIN  =  196.854 eV                                                          
   ICORE  =        2    local potential                                                             
   LCOR   =        T    correct aug charges                                                         
   LPAW   =        T    paw PP                                                                      
   EAUG   =  356.192                                                                                
   DEXC   =    0.000                                                                                
   RMAX   =    1.945    core radius for proj-oper                                                   
   RAUG   =    1.300    factor for augmentation sphere                                              
   RDEP   =    2.020    radius for radial grids                                                     
   RDEPT  =    1.678    core radius for aug-charge                                                  
                                                                                                    
   Atomic configuration                                                                             
    6 entries                                                                                       
     n  l   j            E        occ.                                                              
     1  0  0.50     -2751.1850   2.0000                                                             
     2  0  0.50      -252.6861   2.0000                                                             
     2  1  1.50      -191.6157   6.0000                                                             
     3  0  0.50       -20.6916   2.0000                                                             
     3  1  0.50        -8.5949   5.0000                                                             
     3  2  1.50        -8.1635   0.0000                                                             
   Description                                                                                      
     l       E           TYP  RCUT    TYP  RCUT                                                     
     0    -20.6915656     23  1.900                                                                 
     0    -22.0521482     23  1.900                                                                 
     1     -8.5948577     23  1.900                                                                 
     1     -5.3847331     23  1.900                                                                 
     2     -8.1634956     23  1.900                                                                 
  local pseudopotential read in
  partial core-charges read in
  partial kinetic energy density read in
  atomic valenz-charges read in
  non local Contribution for L=           0  read in
    real space projection operators read in
  non local Contribution for L=           0  read in
    real space projection operators read in
  non local Contribution for L=           1  read in
    real space projection operators read in
  non local Contribution for L=           1  read in
    real space projection operators read in
    PAW grid and wavefunctions read in
 
   number of l-projection  operators is LMAX  =           4
   number of lm-projection operators is LMMAX =           8
 
  PAW_PBE Cr 06Sep2000                  :
 energy of atom  1       EATOM= -276.8859
 kinetic energy error for atom=    0.0016 (will be added to EATOM!!)
  PAW_PBE Cl 06Sep2000                  :
 energy of atom  2       EATOM= -409.7259
 kinetic energy error for atom=    0.0057 (will be added to EATOM!!)
 
 
 POSCAR: 
 -----------------------------------------------------------------------------
|                                                                             |
|           W    W    AA    RRRRR   N    N  II  N    N   GGGG   !!!           |
|           W    W   A  A   R    R  NN   N  II  NN   N  G    G  !!!           |
|           W    W  A    A  R    R  N N  N  II  N N  N  G       !!!           |
|           W WW W  AAAAAA  RRRRR   N  N N  II  N  N N  G  GGG   !            |
|           WW  WW  A    A  R   R   N   NN  II  N   NN  G    G                |
|           W    W  A    A  R    R  N    N  II  N    N   GGGG   !!!           |
|                                                                             |
|     Inconsistent Bravais lattice types found for crystalline and            |
|     reciprocal lattice:                                                     |
|                                                                             |
|        Crystalline: base-centered monoclinic                                |
|        Reciprocal : triclinic                                               |
|                    (instead of base-centered monoclinic)                    |
|                                                                             |
|     In most cases this is due to inaccuracies in the specification of       |
|     the crytalline lattice vectors.                                         |
|                                                                             |
|     Suggested SOLUTIONS:                                                    |
|      ) Refine the lattice parameters of your structure,                     |
|      ) and/or try changing SYMPREC.                                         |
|                                                                             |
 -----------------------------------------------------------------------------

  positions in cartesian coordinates
  No initial velocities read in


 exchange-correlation table for PE
   RHO(1)=    0.500       N(1)  =     2000
   RHO(2)=  100.500       N(2)  =     4000
 


--------------------------------------------------------------------------------------------------------


 ion  position               nearest neighbor table
   1  0.667  0.333  0.500-   4 2.40   6 2.41   8 2.41   3 2.41   5 2.41   7 2.41
   2  1.000  0.000  0.500-   6 2.40   4 2.41   7 2.41   8 2.41   5 2.41   3 2.41
   3  0.333  0.024  0.560-   1 2.41   2 2.41
   4  0.976  0.309  0.560-   1 2.40   2 2.41
   5  0.691  0.666  0.560-   2 2.41   1 2.41
   6  0.691  0.024  0.440-   2 2.40   1 2.41
   7  0.334  0.309  0.440-   2 2.41   1 2.41
   8  0.976  0.667  0.440-   2 2.41   1 2.41
 
  LATTYP: Found a base centered monoclinic cell.
 ALAT       =    46.0522173584
 B/A-ratio  =     0.2315140720
 C/A-ratio  =     0.4954947411
 COS(beta)  =    -0.9910458493
  
  Lattice vectors:
  
 A1 = (  -6.1563980000,  -0.0015340000, -22.8192420000)
 A2 = (   3.0771110000,  -5.3321000000, -22.8193060000)
 A3 = (   0.0023100000,   0.0042790000,  22.8186310000)


Analysis of symmetry for initial positions (statically):
=====================================================================
 Subroutine PRICEL returns:
 Original cell was already a primitive cell.
 

 Routine SETGRP: Setting up the symmetry group for a 
 base centered monoclinic supercell.


 Subroutine GETGRP returns: Found  1 space group operations
 (whereof  1 operations were pure point group operations)
 out of a pool of  4 trial point group operations.


The static configuration has the point symmetry C_1 .


Analysis of symmetry for dynamics (positions and initial velocities):
=====================================================================
 Subroutine PRICEL returns:
 Original cell was already a primitive cell.
 

 Routine SETGRP: Setting up the symmetry group for a 
 base centered monoclinic supercell.


 Subroutine GETGRP returns: Found  1 space group operations
 (whereof  1 operations were pure point group operations)
 out of a pool of  4 trial point group operations.


The dynamic configuration has the point symmetry C_1 .


Analysis of structural, dynamic, and magnetic symmetry:
=====================================================================
 Subroutine PRICEL returns:
 Original cell was already a primitive cell.
 

 Routine SETGRP: Setting up the symmetry group for a 
 base centered monoclinic supercell.


 Subroutine GETGRP returns: Found  1 space group operations
 (whereof  1 operations were pure point group operations)
 out of a pool of  4 trial point group operations.


The overall configuration has the point symmetry C_1 .


 Subroutine INISYM returns: Found  1 space group operations
 (whereof  1 operations are pure point group operations),
 and found     1 'primitive' translations


----------------------------------------------------------------------------------------

                                     Primitive cell                                     

  volume of cell :     747.9816

  direct lattice vectors                    reciprocal lattice vectors
     6.154088000 -0.002745000  0.000611000     0.162535521  0.093943719 -0.000034071
    -3.079421000  5.327821000  0.000675000     0.000083745  0.187742402 -0.000035214
     0.002310000  0.004279000 22.818631000    -0.000004355 -0.000008069  0.043823840

  length of vectors
     6.154088643  6.153739575 22.818631518     0.187731774  0.187742424  0.043823841

  position of ions in fractional coordinates (direct lattice)
     0.666736594  0.333271515  0.500001034
     0.999932001  0.000057150  0.499996780
     0.333036773  0.024315239  0.559914124
     0.976157585  0.309498728  0.559709996
     0.691010203  0.666388278  0.559921327
     0.690524329  0.023819428  0.440290280
     0.333612637  0.309016604  0.440085142
     0.975657232  0.666961176  0.440079793

  ion indices of the primitive-cell ions
   primitive index   ion index
                 1           1
                 2           2
                 3           3
                 4           4
                 5           5
                 6           6
                 7           7
                 8           8

----------------------------------------------------------------------------------------

 
 
 KPOINTS: Automatic mesh                          

Automatic generation of k-mesh.
 Grid dimensions read from file:
 generate k-points for:    6    6    4

 Generating k-lattice:

  Cartesian coordinates                     Fractional coordinates (reciprocal lattice)
     0.027089253  0.015657286 -0.000005678     0.166666667 -0.000000000  0.000000000
     0.000013958  0.031290400 -0.000005869     0.000000000  0.166666667  0.000000000
    -0.000001089 -0.000002017  0.010955960     0.000000000 -0.000000000  0.250000000

  Length of vectors
     0.031288629  0.031290404  0.010955960

  Shift w.r.t. Gamma in fractional coordinates (k-lattice)
     0.500000000  0.500000000  0.500000000

 
 Subroutine IBZKPT returns following result:
 ===========================================
 
 Found     72 irreducible k-points:
 
 Following reciprocal coordinates:
            Coordinates               Weight
  0.083333  0.083333  0.125000      2.000000
  0.250000  0.083333  0.125000      2.000000
  0.416667  0.083333  0.125000      2.000000
 -0.416667  0.083333  0.125000      2.000000
 -0.250000  0.083333  0.125000      2.000000
 -0.083333  0.083333  0.125000      2.000000
  0.083333  0.250000  0.125000      2.000000
  0.250000  0.250000  0.125000      2.000000
  0.416667  0.250000  0.125000      2.000000
 -0.416667  0.250000  0.125000      2.000000
 -0.250000  0.250000  0.125000      2.000000
 -0.083333  0.250000  0.125000      2.000000
  0.083333  0.416667  0.125000      2.000000
  0.250000  0.416667  0.125000      2.000000
  0.416667  0.416667  0.125000      2.000000
 -0.416667  0.416667  0.125000      2.000000
 -0.250000  0.416667  0.125000      2.000000
 -0.083333  0.416667  0.125000      2.000000
  0.083333 -0.416667  0.125000      2.000000
  0.250000 -0.416667  0.125000      2.000000
  0.416667 -0.416667  0.125000      2.000000
 -0.416667 -0.416667  0.125000      2.000000
 -0.250000 -0.416667  0.125000      2.000000
 -0.083333 -0.416667  0.125000      2.000000
  0.083333 -0.250000  0.125000      2.000000
  0.250000 -0.250000  0.125000      2.000000
  0.416667 -0.250000  0.125000      2.000000
 -0.416667 -0.250000  0.125000      2.000000
 -0.250000 -0.250000  0.125000      2.000000
 -0.083333 -0.250000  0.125000      2.000000
  0.083333 -0.083333  0.125000      2.000000
  0.250000 -0.083333  0.125000      2.000000
  0.416667 -0.083333  0.125000      2.000000
 -0.416667 -0.083333  0.125000      2.000000
 -0.250000 -0.083333  0.125000      2.000000
 -0.083333 -0.083333  0.125000      2.000000
  0.083333  0.083333  0.375000      2.000000
  0.250000  0.083333  0.375000      2.000000
  0.416667  0.083333  0.375000      2.000000
 -0.416667  0.083333  0.375000      2.000000
 -0.250000  0.083333  0.375000      2.000000
 -0.083333  0.083333  0.375000      2.000000
  0.083333  0.250000  0.375000      2.000000
  0.250000  0.250000  0.375000      2.000000
  0.416667  0.250000  0.375000      2.000000
 -0.416667  0.250000  0.375000      2.000000
 -0.250000  0.250000  0.375000      2.000000
 -0.083333  0.250000  0.375000      2.000000
  0.083333  0.416667  0.375000      2.000000
  0.250000  0.416667  0.375000      2.000000
  0.416667  0.416667  0.375000      2.000000
 -0.416667  0.416667  0.375000      2.000000
 -0.250000  0.416667  0.375000      2.000000
 -0.083333  0.416667  0.375000      2.000000
  0.083333 -0.416667  0.375000      2.000000
  0.250000 -0.416667  0.375000      2.000000
  0.416667 -0.416667  0.375000      2.000000
 -0.416667 -0.416667  0.375000      2.000000
 -0.250000 -0.416667  0.375000      2.000000
 -0.083333 -0.416667  0.375000      2.000000
  0.083333 -0.250000  0.375000      2.000000
  0.250000 -0.250000  0.375000      2.000000
  0.416667 -0.250000  0.375000      2.000000
 -0.416667 -0.250000  0.375000      2.000000
 -0.250000 -0.250000  0.375000      2.000000
 -0.083333 -0.250000  0.375000      2.000000
  0.083333 -0.083333  0.375000      2.000000
  0.250000 -0.083333  0.375000      2.000000
  0.416667 -0.083333  0.375000      2.000000
 -0.416667 -0.083333  0.375000      2.000000
 -0.250000 -0.083333  0.375000      2.000000
 -0.083333 -0.083333  0.375000      2.000000
 
 Following cartesian coordinates:
            Coordinates               Weight
  0.013551  0.023473  0.005472      2.000000
  0.040640  0.039130  0.005467      2.000000
  0.067730  0.054787  0.005461      2.000000
 -0.067717 -0.023499  0.005489      2.000000
 -0.040627 -0.007842  0.005484      2.000000
 -0.013538  0.007816  0.005478      2.000000
  0.013565  0.054763  0.005466      2.000000
  0.040654  0.070421  0.005461      2.000000
  0.067744  0.086078  0.005455      2.000000
 -0.067703  0.007791  0.005483      2.000000
 -0.040613  0.023449  0.005478      2.000000
 -0.013524  0.039106  0.005472      2.000000
  0.013579  0.086054  0.005460      2.000000
  0.040668  0.101711  0.005455      2.000000
  0.067757  0.117368  0.005449      2.000000
 -0.067689  0.039082  0.005478      2.000000
 -0.040600  0.054739  0.005472      2.000000
 -0.013510  0.070396  0.005466      2.000000
  0.013509 -0.070398  0.005490      2.000000
  0.040598 -0.054741  0.005484      2.000000
  0.067688 -0.039084  0.005478      2.000000
 -0.067759 -0.117370  0.005507      2.000000
 -0.040669 -0.101713  0.005501      2.000000
 -0.013580 -0.086056  0.005495      2.000000
  0.013523 -0.039108  0.005484      2.000000
  0.040612 -0.023451  0.005478      2.000000
  0.067702 -0.007793  0.005473      2.000000
 -0.067745 -0.086080  0.005501      2.000000
 -0.040655 -0.070423  0.005495      2.000000
 -0.013566 -0.054765  0.005490      2.000000
  0.013537 -0.007818  0.005478      2.000000
  0.040626  0.007840  0.005472      2.000000
  0.067716  0.023497  0.005467      2.000000
 -0.067731 -0.054789  0.005495      2.000000
 -0.040641 -0.039132  0.005489      2.000000
 -0.013552 -0.023475  0.005484      2.000000
  0.013550  0.023471  0.016428      2.000000
  0.040639  0.039128  0.016422      2.000000
  0.067728  0.054785  0.016417      2.000000
 -0.067718 -0.023501  0.016445      2.000000
 -0.040629 -0.007844  0.016440      2.000000
 -0.013539  0.007814  0.016434      2.000000
  0.013564  0.054761  0.016422      2.000000
  0.040653  0.070419  0.016417      2.000000
  0.067742  0.086076  0.016411      2.000000
 -0.067704  0.007789  0.016439      2.000000
 -0.040615  0.023447  0.016434      2.000000
 -0.013525  0.039104  0.016428      2.000000
  0.013578  0.086052  0.016416      2.000000
  0.040667  0.101709  0.016411      2.000000
  0.067756  0.117366  0.016405      2.000000
 -0.067690  0.039080  0.016433      2.000000
 -0.040601  0.054737  0.016428      2.000000
 -0.013511  0.070394  0.016422      2.000000
  0.013508 -0.070400  0.016446      2.000000
  0.040597 -0.054743  0.016440      2.000000
  0.067687 -0.039086  0.016434      2.000000
 -0.067760 -0.117372  0.016463      2.000000
 -0.040670 -0.101715  0.016457      2.000000
 -0.013581 -0.086058  0.016451      2.000000
  0.013522 -0.039110  0.016440      2.000000
  0.040611 -0.023453  0.016434      2.000000
  0.067701 -0.007795  0.016429      2.000000
 -0.067746 -0.086082  0.016457      2.000000
 -0.040656 -0.070425  0.016451      2.000000
 -0.013567 -0.054767  0.016446      2.000000
  0.013536 -0.007820  0.016434      2.000000
  0.040625  0.007838  0.016428      2.000000
  0.067715  0.023495  0.016423      2.000000
 -0.067732 -0.054791  0.016451      2.000000
 -0.040642 -0.039134  0.016445      2.000000
 -0.013553 -0.023477  0.016440      2.000000
 


--------------------------------------------------------------------------------------------------------




 Dimension of arrays:
   k-points           NKPTS =     72   k-points in BZ     NKDIM =     72   number of bands    NBANDS=     42
   number of dos      NEDOS =    301   number of ions     NIONS =      8
   non local maximal  LDIM  =      6   non local SUM 2l+1 LMDIM =     18
   total plane-waves  NPLWV = 368640
   max r-space proj   IRMAX =      1   max aug-charges    IRDMAX=  25374
   dimension x,y,z NGX =    48 NGY =   48 NGZ =  160
   dimension x,y,z NGXF=    96 NGYF=   96 NGZF=  320
   support grid    NGXF=    96 NGYF=   96 NGZF=  320
   ions per type =               2   6
   NGX,Y,Z   is equivalent  to a cutoff of  12.97, 12.97, 11.66 a.u.
   NGXF,Y,Z  is equivalent  to a cutoff of  25.93, 25.93, 23.31 a.u.

 SYSTEM =  CrCl3 Convergência                     
 POSCAR =                                          

 Startparameter for this run:
   NWRITE =      2    write-flag & timer
   PREC   = accura    normal or accurate (medium, high low for compatibility)
   ISTART =      0    job   : 0-new  1-cont  2-samecut
   ICHARG =      2    charge: 1-file 2-atom 10-const
   ISPIN  =      2    spin polarized calculation?
   LNONCOLLINEAR =      F non collinear calculations
   LSORBIT =      F    spin-orbit coupling
   INIWAV =      1    electr: 0-lowe 1-rand  2-diag
   LASPH  =      F    aspherical Exc in radial PAW
 Electronic Relaxation 1
   ENCUT  =  450.0 eV  33.07 Ry    5.75 a.u.  10.64 10.64 39.47*2*pi/ulx,y,z
   ENINI  =  450.0     initial cutoff
   ENAUG  =  402.1 eV  augmentation charge cutoff
   NELM   =     60;   NELMIN=  2; NELMDL= -5     # of ELM steps 
   EDIFF  = 0.1E-05   stopping-criterion for ELM
   LREAL  =      F    real-space projection
   NLSPLINE    = F    spline interpolate recip. space projectors
   LCOMPAT=      F    compatible to vasp.4.4
   GGA_COMPAT  = T    GGA compatible to vasp.4.4-vasp.4.6
   LMAXPAW     = -100 max onsite density
   LMAXMIX     =    2 max onsite mixed and CHGCAR
   VOSKOWN=      0    Vosko Wilk Nusair interpolation
   ROPT   =    0.00000   0.00000
 Ionic relaxation
   EDIFFG = 0.1E-04   stopping-criterion for IOM
   NSW    =      0    number of steps for IOM
   NBLOCK =      1;   KBLOCK =      1    inner block; outer block 
   IBRION =     -1    ionic relax: 0-MD 1-quasi-New 2-CG
   NFREE  =      0    steps in history (QN), initial steepest desc. (CG)
   ISIF   =      2    stress and relaxation
   IWAVPR =     10    prediction:  0-non 1-charg 2-wave 3-comb
   ISYM   =      2    0-nonsym 1-usesym 2-fastsym
   LCORR  =      T    Harris-Foulkes like correction to forces

   POTIM  = 0.5000    time-step for ionic-motion
   TEIN   =    0.0    initial temperature
   TEBEG  =    0.0;   TEEND  =   0.0 temperature during run
   SMASS  =  -3.00    Nose mass-parameter (am)
   estimated Nose-frequenzy (Omega)   =  0.10E-29 period in steps = 0.13E+47 mass=  -0.865E-27a.u.
   SCALEE = 1.0000    scale energy and forces
   NPACO  =    256;   APACO  = 10.0  distance and # of slots for P.C.
   PSTRESS=    0.0 pullay stress

  Mass of Ions in am
   POMASS =  52.00 35.45
  Ionic Valenz
   ZVAL   =   6.00  7.00
  Atomic Wigner-Seitz radii
   RWIGS  =  -1.00 -1.00
  virtual crystal weights 
   VCA    =   1.00  1.00
   NELECT =      54.0000    total number of electrons
   NUPDOWN=      -1.0000    fix difference up-down

 DOS related values:
   EMIN   =  10.00;   EMAX   =-10.00  energy-range for DOS
   EFERMI =   0.00;   METHOD = LEGACY      
   ISMEAR =     0;   SIGMA  =   0.05  broadening in eV -4-tet -1-fermi 0-gaus
   EFERMI_NEDOS =   21; number of points for ismear=-14 and -15

 Electronic relaxation 2 (details)
   IALGO  =     38    algorithm
   LDIAG  =      T    sub-space diagonalisation (order eigenvalues)
   LSUBROT=      F    optimize rotation matrix (better conditioning)
   LROBUST=      F    robust break criterion during scf (extrapolated energy error)
   ISEARCH=      0    line search for conjugate gradient (0, 1=use gradient)
   TURBO    =      0    0=normal 1=particle mesh
   IRESTART =      0    0=no restart 2=restart with 2 vectors
   NREBOOT  =      0    no. of reboots
   NMIN     =      0    reboot dimension
   EREF     =   0.00    reference energy to select bands
   IMIX   =      4    mixing-type and parameters
     AMIX     =   0.40;   BMIX     =  1.00
     AMIX_MAG =   1.60;   BMIX_MAG =  1.00
     AMIN     =   0.10
     WC   =   100.;   INIMIX=   1;  MIXPRE=   1;  MAXMIX= -45

 Intra band minimization:
   WEIMIN = 0.0000     energy-eigenvalue tresh-hold
   EBREAK =  0.60E-08  absolut break condition
   DEPER  =   0.30     relativ break condition  

   TIME   =   0.40     timestep for ELM

  volume/ion in A,a.u.               =      93.50       630.95
  Fermi-wavevector in a.u.,A,eV,Ry     =   0.681673  1.288174  6.322320  0.464677
  Thomas-Fermi vector in A             =   1.760523
 
 Write flags
   LWAVE        =      F    write WAVECAR
   LDOWNSAMPLE  =      F    k-point downsampling of WAVECAR
   LCHARG       =      F    write CHGCAR
   LVTOT        =      F    write LOCPOT, total local potential
   LVHAR        =      F    write LOCPOT, Hartree potential only
   WRT_POTENTIAL= false  ! write potential to hdf5 file
   LELF         =      F    write electronic localiz. function (ELF)
   LORBIT       =      0    0 simple, 1 ext, 2 COOP (PROOUT), +10 PAW based schemes


 Python interface
   PLUGINS active      =      F    recompile with -DPLUGINS to activate
 
 Dipole corrections
   LMONO      =      F    monopole corrections only (constant potential shift)
   LDIPOL     =      F    correct potential (dipole corrections)
   IDIPOL     =      0    1-x, 2-y, 3-z, 4-all directions 
   EPSILON    =  1.0000000 bulk dielectric constant
   LVACPOTAV  =      F  vacuum potentials using an averaging scheme for the charge density
   VACPOTFLAT =  0.1000000 required flatness to determine vacuum potential
 
Coulomb truncation method
  LTRUNCATE          =      F  Coulomb kernel truncation to be used

 
 Exchange correlation treatment:
   GGA     = PE    functional components
   XC_C    = 1    coefficients multiplying the functional components
   LIBXC   =     F    Libxc                    
   VOSKOWN =     0    Vosko Wilk Nusair interpolation
   LHFCALC =     F    Hartree Fock is set to
   LHFONE  =     F    Hartree Fock one center treatment
   AEXX    =    0.0000 exact exchange contribution

 Parameters of functionals:
   PE:
     No parameter
 
 Van der Waals corrections
   IVDW    =     0    specifies the selected vdW correction

 Linear response parameters
   LEPSILON=     F    determine dielectric tensor
   LRPA    =     F    only Hartree local field effects (RPA)
   LNABLA  =     F    use nabla operator in PAW spheres
   LVEL    =     F    velocity operator in full k-point grid
   CSHIFT  =0.1000    complex shift for real part using Kramers Kronig
   OMEGAMAX=  -1.0    maximum frequency
   DEG_THRESHOLD= 0.2000000E-02 threshold for treating states as degnerate
   RTIME   =   -0.100 relaxation time in fs
  (WPLASMAI=    0.000 imaginary part of plasma frequency in eV, 0.658/RTIME)
   DFIELD  = 0.0000000 0.0000000 0.0000000 field for delta impulse in time
 
  Optional k-point grid parameters
   LKPOINTS_OPT  =     F    use optional k-point grid
   KPOINTS_OPT_MODE=     1    mode for optional k-point grid
 
 Orbital magnetization related:
   ORBITALMAG=     F  switch on orbital magnetization
   LCHIMAG   =     F  perturbation theory with respect to B field
   DQ        =  0.001000  dq finite difference perturbation B field
   LLRAUG    =     F  two centre corrections for induced B field
   LBONE     =     F  B-component reconstruction in AE one-centre
   LVGVCALC  =     T  calculate vGv susceptibility
   LVGVAPPL  =     F  apply vGv susceptibility instead of pGv for G=0

 Random number generation:
   RANDOM_GENERATOR = DEFAULT
   PCG_SEED         = not used


--------------------------------------------------------------------------------------------------------


 Static calculation
 charge density and potential will be updated during run
 spin polarized calculation
 Variant of blocked Davidson
 Davidson routine will perform the subspace rotation
 perform sub-space diagonalisation
    after iterative eigenvector-optimisation
 modified Broyden-mixing scheme, WC =      100.0
 initial mixing is a Kerker type mixing with AMIX =  0.4000 and BMIX =      1.0000
 Hartree-type preconditioning will be used
 using additional bands           15
 reciprocal scheme for non local part
 use partial core corrections
 calculate Harris-corrections to forces 
   (improved forces if not selfconsistent)
 use gradient corrections 
 use of overlap-Matrix (Vanderbilt PP)
 Gauss-broadening in eV      SIGMA  =   0.05


--------------------------------------------------------------------------------------------------------


  energy-cutoff  :      450.00
  volume of cell :      747.98
      direct lattice vectors                 reciprocal lattice vectors
     6.154088000 -0.002745000  0.000611000     0.162535521  0.093943719 -0.000034071
    -3.079421000  5.327821000  0.000675000     0.000083745  0.187742402 -0.000035214
     0.002310000  0.004279000 22.818631000    -0.000004355 -0.000008069  0.043823840

  length of vectors
     6.154088643  6.153739575 22.818631518     0.187731774  0.187742424  0.043823841


 
 k-points in units of 2pi/SCALE and weight: Automatic mesh                          
   0.01355106  0.02347283  0.00547221       0.014
   0.04064031  0.03913012  0.00546653       0.014
   0.06772957  0.05478741  0.00546085       0.014
  -0.06771670 -0.02349902  0.00548924       0.014
  -0.04062745 -0.00784174  0.00548356       0.014
  -0.01353819  0.00781555  0.00547788       0.014
   0.01356502  0.05476324  0.00546634       0.014
   0.04065427  0.07042052  0.00546066       0.014
   0.06774353  0.08607781  0.00545498       0.014
  -0.06770274  0.00779138  0.00548337       0.014
  -0.04061349  0.02344866  0.00547769       0.014
  -0.01352423  0.03910595  0.00547202       0.014
   0.01357898  0.08605364  0.00546047       0.014
   0.04066823  0.10171092  0.00545479       0.014
   0.06775748  0.11736821  0.00544911       0.014
  -0.06768878  0.03908178  0.00547750       0.014
  -0.04059953  0.05473906  0.00547183       0.014
  -0.01351028  0.07039635  0.00546615       0.014
   0.01350919 -0.07039837  0.00548981       0.014
   0.04059844 -0.05474108  0.00548414       0.014
   0.06768770 -0.03908379  0.00547846       0.014
  -0.06775857 -0.11737023  0.00550685       0.014
  -0.04066932 -0.10171294  0.00550117       0.014
  -0.01358006 -0.08605565  0.00549549       0.014
   0.01352315 -0.03910797  0.00548394       0.014
   0.04061240 -0.02345068  0.00547827       0.014
   0.06770165 -0.00779339  0.00547259       0.014
  -0.06774461 -0.08607983  0.00550098       0.014
  -0.04065536 -0.07042254  0.00549530       0.014
  -0.01356611 -0.05476525  0.00548962       0.014
   0.01353710 -0.00781757  0.00547808       0.014
   0.04062636  0.00783972  0.00547240       0.014
   0.06771561  0.02349701  0.00546672       0.014
  -0.06773066 -0.05478942  0.00549511       0.014
  -0.04064140 -0.03913214  0.00548943       0.014
  -0.01355215 -0.02347485  0.00548375       0.014
   0.01354997  0.02347082  0.01642817       0.014
   0.04063923  0.03912810  0.01642249       0.014
   0.06772848  0.05478539  0.01641681       0.014
  -0.06771779 -0.02350104  0.01644520       0.014
  -0.04062853 -0.00784376  0.01643952       0.014
  -0.01353928  0.00781353  0.01643384       0.014
   0.01356393  0.05476122  0.01642230       0.014
   0.04065318  0.07041850  0.01641662       0.014
   0.06774244  0.08607579  0.01641094       0.014
  -0.06770383  0.00778936  0.01643933       0.014
  -0.04061458  0.02344664  0.01643365       0.014
  -0.01352532  0.03910393  0.01642798       0.014
   0.01357789  0.08605162  0.01641643       0.014
   0.04066714  0.10170890  0.01641075       0.014
   0.06775639  0.11736619  0.01640507       0.014
  -0.06768987  0.03907976  0.01643346       0.014
  -0.04060062  0.05473705  0.01642779       0.014
  -0.01351137  0.07039433  0.01642211       0.014
   0.01350810 -0.07040038  0.01644577       0.014
   0.04059735 -0.05474310  0.01644010       0.014
   0.06768661 -0.03908581  0.01643442       0.014
  -0.06775966 -0.11737224  0.01646281       0.014
  -0.04067041 -0.10171496  0.01645713       0.014
  -0.01358115 -0.08605767  0.01645145       0.014
   0.01352206 -0.03910998  0.01643990       0.014
   0.04061131 -0.02345270  0.01643423       0.014
   0.06770056 -0.00779541  0.01642855       0.014
  -0.06774570 -0.08608184  0.01645694       0.014
  -0.04065645 -0.07042456  0.01645126       0.014
  -0.01356720 -0.05476727  0.01644558       0.014
   0.01353601 -0.00781958  0.01643404       0.014
   0.04062527  0.00783770  0.01642836       0.014
   0.06771452  0.02349499  0.01642268       0.014
  -0.06773175 -0.05479144  0.01645107       0.014
  -0.04064249 -0.03913416  0.01644539       0.014
  -0.01355324 -0.02347687  0.01643971       0.014
 
 k-points in reciprocal lattice and weights: Automatic mesh                          
   0.08333333  0.08333333  0.12500000       0.014
   0.25000000  0.08333333  0.12500000       0.014
   0.41666667  0.08333333  0.12500000       0.014
  -0.41666667  0.08333333  0.12500000       0.014
  -0.25000000  0.08333333  0.12500000       0.014
  -0.08333333  0.08333333  0.12500000       0.014
   0.08333333  0.25000000  0.12500000       0.014
   0.25000000  0.25000000  0.12500000       0.014
   0.41666667  0.25000000  0.12500000       0.014
  -0.41666667  0.25000000  0.12500000       0.014
  -0.25000000  0.25000000  0.12500000       0.014
  -0.08333333  0.25000000  0.12500000       0.014
   0.08333333  0.41666667  0.12500000       0.014
   0.25000000  0.41666667  0.12500000       0.014
   0.41666667  0.41666667  0.12500000       0.014
  -0.41666667  0.41666667  0.12500000       0.014
  -0.25000000  0.41666667  0.12500000       0.014
  -0.08333333  0.41666667  0.12500000       0.014
   0.08333333 -0.41666667  0.12500000       0.014
   0.25000000 -0.41666667  0.12500000       0.014
   0.41666667 -0.41666667  0.12500000       0.014
  -0.41666667 -0.41666667  0.12500000       0.014
  -0.25000000 -0.41666667  0.12500000       0.014
  -0.08333333 -0.41666667  0.12500000       0.014
   0.08333333 -0.25000000  0.12500000       0.014
   0.25000000 -0.25000000  0.12500000       0.014
   0.41666667 -0.25000000  0.12500000       0.014
  -0.41666667 -0.25000000  0.12500000       0.014
  -0.25000000 -0.25000000  0.12500000       0.014
  -0.08333333 -0.25000000  0.12500000       0.014
   0.08333333 -0.08333333  0.12500000       0.014
   0.25000000 -0.08333333  0.12500000       0.014
   0.41666667 -0.08333333  0.12500000       0.014
  -0.41666667 -0.08333333  0.12500000       0.014
  -0.25000000 -0.08333333  0.12500000       0.014
  -0.08333333 -0.08333333  0.12500000       0.014
   0.08333333  0.08333333  0.37500000       0.014
   0.25000000  0.08333333  0.37500000       0.014
   0.41666667  0.08333333  0.37500000       0.014
  -0.41666667  0.08333333  0.37500000       0.014
  -0.25000000  0.08333333  0.37500000       0.014
  -0.08333333  0.08333333  0.37500000       0.014
   0.08333333  0.25000000  0.37500000       0.014
   0.25000000  0.25000000  0.37500000       0.014
   0.41666667  0.25000000  0.37500000       0.014
  -0.41666667  0.25000000  0.37500000       0.014
  -0.25000000  0.25000000  0.37500000       0.014
  -0.08333333  0.25000000  0.37500000       0.014
   0.08333333  0.41666667  0.37500000       0.014
   0.25000000  0.41666667  0.37500000       0.014
   0.41666667  0.41666667  0.37500000       0.014
  -0.41666667  0.41666667  0.37500000       0.014
  -0.25000000  0.41666667  0.37500000       0.014
  -0.08333333  0.41666667  0.37500000       0.014
   0.08333333 -0.41666667  0.37500000       0.014
   0.25000000 -0.41666667  0.37500000       0.014
   0.41666667 -0.41666667  0.37500000       0.014
  -0.41666667 -0.41666667  0.37500000       0.014
  -0.25000000 -0.41666667  0.37500000       0.014
  -0.08333333 -0.41666667  0.37500000       0.014
   0.08333333 -0.25000000  0.37500000       0.014
   0.25000000 -0.25000000  0.37500000       0.014
   0.41666667 -0.25000000  0.37500000       0.014
  -0.41666667 -0.25000000  0.37500000       0.014
  -0.25000000 -0.25000000  0.37500000       0.014
  -0.08333333 -0.25000000  0.37500000       0.014
   0.08333333 -0.08333333  0.37500000       0.014
   0.25000000 -0.08333333  0.37500000       0.014
   0.41666667 -0.08333333  0.37500000       0.014
  -0.41666667 -0.08333333  0.37500000       0.014
  -0.25000000 -0.08333333  0.37500000       0.014
  -0.08333333 -0.08333333  0.37500000       0.014
 
 position of ions in fractional coordinates (direct lattice) 
   0.66673659  0.33327152  0.50000103
   0.99993200  0.00005715  0.49999678
   0.33303677  0.02431524  0.55991412
   0.97615759  0.30949873  0.55971000
   0.69101020  0.66638828  0.55992133
   0.69052433  0.02381943  0.44029028
   0.33361264  0.30901660  0.44008514
   0.97565723  0.66696118  0.44007979
 
 position of ions in cartesian coordinates  (Angst):
   3.07802737  1.77592029 11.40997144
   6.15464853 -0.00030084 11.40985301
   1.97595415  0.13102893 12.77669369
   5.05557573  1.64866927 12.77262120
   2.20174096  3.55089654 12.77751016
   4.17721451  0.12689416 10.04725942
   1.10250590  1.64735251 10.04255288
   3.95144280  3.55265468 10.04306474
 


--------------------------------------------------------------------------------------------------------


 k-point     1 :   0.0833 0.0833 0.1250  plane waves:   16258
 k-point     2 :   0.2500 0.0833 0.1250  plane waves:   16204
 k-point     3 :   0.4167 0.0833 0.1250  plane waves:   16197
 k-point     4 :  -0.4167 0.0833 0.1250  plane waves:   16206
 k-point     5 :  -0.2500 0.0833 0.1250  plane waves:   16230
 k-point     6 :  -0.0833 0.0833 0.1250  plane waves:   16257
 k-point     7 :   0.0833 0.2500 0.1250  plane waves:   16205
 k-point     8 :   0.2500 0.2500 0.1250  plane waves:   16226
 k-point     9 :   0.4167 0.2500 0.1250  plane waves:   16210
 k-point    10 :  -0.4167 0.2500 0.1250  plane waves:   16205
 k-point    11 :  -0.2500 0.2500 0.1250  plane waves:   16217
 k-point    12 :  -0.0833 0.2500 0.1250  plane waves:   16232
 k-point    13 :   0.0833 0.4167 0.1250  plane waves:   16196
 k-point    14 :   0.2500 0.4167 0.1250  plane waves:   16209
 k-point    15 :   0.4167 0.4167 0.1250  plane waves:   16211
 k-point    16 :  -0.4167 0.4167 0.1250  plane waves:   16206
 k-point    17 :  -0.2500 0.4167 0.1250  plane waves:   16206
 k-point    18 :  -0.0833 0.4167 0.1250  plane waves:   16206
 k-point    19 :   0.0833-0.4167 0.1250  plane waves:   16205
 k-point    20 :   0.2500-0.4167 0.1250  plane waves:   16206
 k-point    21 :   0.4167-0.4167 0.1250  plane waves:   16205
 k-point    22 :  -0.4167-0.4167 0.1250  plane waves:   16211
 k-point    23 :  -0.2500-0.4167 0.1250  plane waves:   16211
 k-point    24 :  -0.0833-0.4167 0.1250  plane waves:   16196
 k-point    25 :   0.0833-0.2500 0.1250  plane waves:   16229
 k-point    26 :   0.2500-0.2500 0.1250  plane waves:   16217
 k-point    27 :   0.4167-0.2500 0.1250  plane waves:   16207
 k-point    28 :  -0.4167-0.2500 0.1250  plane waves:   16215
 k-point    29 :  -0.2500-0.2500 0.1250  plane waves:   16226
 k-point    30 :  -0.0833-0.2500 0.1250  plane waves:   16205
 k-point    31 :   0.0833-0.0833 0.1250  plane waves:   16258
 k-point    32 :   0.2500-0.0833 0.1250  plane waves:   16233
 k-point    33 :   0.4167-0.0833 0.1250  plane waves:   16206
 k-point    34 :  -0.4167-0.0833 0.1250  plane waves:   16197
 k-point    35 :  -0.2500-0.0833 0.1250  plane waves:   16204
 k-point    36 :  -0.0833-0.0833 0.1250  plane waves:   16251
 k-point    37 :   0.0833 0.0833 0.3750  plane waves:   16261
 k-point    38 :   0.2500 0.0833 0.3750  plane waves:   16202
 k-point    39 :   0.4167 0.0833 0.3750  plane waves:   16215
 k-point    40 :  -0.4167 0.0833 0.3750  plane waves:   16180
 k-point    41 :  -0.2500 0.0833 0.3750  plane waves:   16240
 k-point    42 :  -0.0833 0.0833 0.3750  plane waves:   16256
 k-point    43 :   0.0833 0.2500 0.3750  plane waves:   16203
 k-point    44 :   0.2500 0.2500 0.3750  plane waves:   16196
 k-point    45 :   0.4167 0.2500 0.3750  plane waves:   16201
 k-point    46 :  -0.4167 0.2500 0.3750  plane waves:   16192
 k-point    47 :  -0.2500 0.2500 0.3750  plane waves:   16235
 k-point    48 :  -0.0833 0.2500 0.3750  plane waves:   16240
 k-point    49 :   0.0833 0.4167 0.3750  plane waves:   16215
 k-point    50 :   0.2500 0.4167 0.3750  plane waves:   16201
 k-point    51 :   0.4167 0.4167 0.3750  plane waves:   16215
 k-point    52 :  -0.4167 0.4167 0.3750  plane waves:   16184
 k-point    53 :  -0.2500 0.4167 0.3750  plane waves:   16192
 k-point    54 :  -0.0833 0.4167 0.3750  plane waves:   16187
 k-point    55 :   0.0833-0.4167 0.3750  plane waves:   16179
 k-point    56 :   0.2500-0.4167 0.3750  plane waves:   16192
 k-point    57 :   0.4167-0.4167 0.3750  plane waves:   16183
 k-point    58 :  -0.4167-0.4167 0.3750  plane waves:   16214
 k-point    59 :  -0.2500-0.4167 0.3750  plane waves:   16194
 k-point    60 :  -0.0833-0.4167 0.3750  plane waves:   16211
 k-point    61 :   0.0833-0.2500 0.3750  plane waves:   16239
 k-point    62 :   0.2500-0.2500 0.3750  plane waves:   16237
 k-point    63 :   0.4167-0.2500 0.3750  plane waves:   16192
 k-point    64 :  -0.4167-0.2500 0.3750  plane waves:   16195
 k-point    65 :  -0.2500-0.2500 0.3750  plane waves:   16195
 k-point    66 :  -0.0833-0.2500 0.3750  plane waves:   16206
 k-point    67 :   0.0833-0.0833 0.3750  plane waves:   16256
 k-point    68 :   0.2500-0.0833 0.3750  plane waves:   16243
 k-point    69 :   0.4167-0.0833 0.3750  plane waves:   16187
 k-point    70 :  -0.4167-0.0833 0.3750  plane waves:   16210
 k-point    71 :  -0.2500-0.0833 0.3750  plane waves:   16206
 k-point    72 :  -0.0833-0.0833 0.3750  plane waves:   16268

 maximum and minimum number of plane-waves per node :     16268    16179

 maximum number of plane-waves:     16268
 maximum index in each direction: 
   IXMAX=   11   IYMAX=   11   IZMAX=   39
   IXMIN=  -11   IYMIN=  -11   IZMIN=  -39


 serial   3D FFT for wavefunctions
 parallel 3D FFT for charge:
    minimum data exchange during FFTs selected (reduces bandwidth)


 total amount of memory used by VASP MPI-rank0   449405. kBytes
=======================================================================

   base                                    :      30000. kBytes
   nonl-proj                               :     339999. kBytes
   fftplans                                :       4445. kBytes
   grid                                    :      36974. kBytes
   one-center                              :        248. kBytes
   wavefun                                 :      37739. kBytes
 
     INWAV:  cpu time      0.0000: real time      0.0002
 Broyden mixing: mesh for mixing (old mesh)
   NGX = 21   NGY = 21   NGZ = 79
  (NGX  = 96   NGY  = 96   NGZ  =320)
  gives a total of  34839 points

 initial charge density was supplied:
 charge density of overlapping atoms calculated
 number of electron      54.0000000 magnetization       9.6000000
 keeping initial charge density in first step


--------------------------------------------------------------------------------------------------------


