 vasp.6.5.1 10Mar25 (build Apr 08 2025 20:07:02) complex                        
  
 executed on             LinuxIFC date 2025.06.11  14:32:40
 running   42 mpi-ranks, on    1 nodes
 distrk:  each k-point on   42 cores,    1 groups
 distr:  one band on NCORE=   1 cores,   42 groups


--------------------------------------------------------------------------------------------------------


 INCAR:
   PREC = Accurate
   ENCUT = 500
   ISMEAR = 0
   SIGMA = 0.05
   EDIFF = 1E-6
   ISPIN = 2
   LCHARG = .FALSE.
   LWAVE = .FALSE.
   NSW = 0
   IBRION = -1
   ISYM = 0
   LREAL = .FALSE.
   MAGMOM = 1*5.0

 POTCAR:    PAW_PBE Cr 06Sep2000                  
 -----------------------------------------------------------------------------
|                                                                             |
|           W    W    AA    RRRRR   N    N  II  N    N   GGGG   !!!           |
|           W    W   A  A   R    R  NN   N  II  NN   N  G    G  !!!           |
|           W    W  A    A  R    R  N N  N  II  N N  N  G       !!!           |
|           W WW W  AAAAAA  RRRRR   N  N N  II  N  N N  G  GGG   !            |
|           WW  WW  A    A  R   R   N   NN  II  N   NN  G    G                |
|           W    W  A    A  R    R  N    N  II  N    N   GGGG   !!!           |
|                                                                             |
|     For optimal performance we recommend to set                             |
|       NCORE = 2 up to number-of-cores-per-socket                            |
|     NCORE specifies how many cores store one orbital (NPAR=cpu/NCORE).      |
|     This setting can greatly improve the performance of VASP for DFT.       |
|     The default, NCORE=1 might be grossly inefficient on modern             |
|     multi-core architectures or massively parallel machines. Do your        |
|     own testing! More info at https://www.vasp.at/wiki/index.php/NCORE      |
|     Unfortunately you need to use the default for GW and RPA                |
|     calculations (for HF NCORE is supported but not extensively tested      |
|     yet).                                                                   |
|                                                                             |
 -----------------------------------------------------------------------------

 POTCAR:    PAW_PBE Cr 06Sep2000                  
   SHA256 =  56e7271fac8042f322b235801e26979132a24da65eb043fa6a03029023cb2fcc Cr/POTCAR             
   COPYR  = (c) Copyright 06Sep2000 Georg Kresse                                                    
   COPYR  = This file is part of the software VASP. Any use, copying, and all other rights are regul
   COPYR  = If you do not have a valid VASP license, you may not use, copy or distribute this file. 
   VRHFIN =Cr : d5 s1                                                                               
   LEXCH  = PE                                                                                      
   EATOM  =   276.8859 eV,   20.3505 Ry                                                             
                                                                                                    
   TITEL  = PAW_PBE Cr 06Sep2000                                                                    
   LULTRA =        F    use ultrasoft PP ?                                                          
   IUNSCR =        1    unscreen: 0-lin 1-nonlin 2-no                                               
   RPACOR =    2.080    partial core radius                                                         
   POMASS =   51.996; ZVAL   =    6.000    mass and valenz                                          
   RCORE  =    2.500    outmost cutoff radius                                                       
   RWIGS  =    2.500; RWIGS  =    1.323    wigner-seitz radius (au A)                               
   ENMAX  =  227.080; ENMIN  =  170.310 eV                                                          
   RCLOC  =    1.721    cutoff for local pot                                                        
   LCOR   =        T    correct aug charges                                                         
   LPAW   =        T    paw PP                                                                      
   EAUG   =  402.108                                                                                
   DEXC   =    0.000                                                                                
   RMAX   =    2.552    core radius for proj-oper                                                   
   RAUG   =    1.300    factor for augmentation sphere                                              
   RDEP   =    2.609    radius for radial grids                                                     
   RDEPT  =    2.065    core radius for aug-charge                                                  
                                                                                                    
   Atomic configuration                                                                             
    9 entries                                                                                       
     n  l   j            E        occ.                                                              
     1  0  0.50     -5880.4963   2.0000                                                             
     2  0  0.50      -667.0865   2.0000                                                             
     2  1  1.50      -560.6250   6.0000                                                             
     3  0  0.50       -73.9860   2.0000                                                             
     3  1  1.50       -45.4378   6.0000                                                             
     3  2  2.50        -2.9137   5.0000                                                             
     4  0  0.50        -4.0071   1.0000                                                             
     4  1  0.50        -1.2789   0.0000                                                             
     4  3  2.50        -1.3606   0.0000                                                             
   Description                                                                                      
     l       E           TYP  RCUT    TYP  RCUT                                                     
     2     -2.9136677     23  2.500                                                                 
     2     -4.2742503     23  2.500                                                                 
     0     -4.0071322     23  2.500                                                                 
     0      9.4498801     23  2.500                                                                 
     1     -5.4423304     23  2.500                                                                 
     1     27.2116520     23  2.500                                                                 
  local pseudopotential read in
  partial core-charges read in
  partial kinetic energy density read in
  atomic valenz-charges read in
  non local Contribution for L=           2  read in
    real space projection operators read in
  non local Contribution for L=           2  read in
    real space projection operators read in
  non local Contribution for L=           0  read in
    real space projection operators read in
  non local Contribution for L=           0  read in
    real space projection operators read in
  non local Contribution for L=           1  read in
    real space projection operators read in
  non local Contribution for L=           1  read in
    real space projection operators read in
    PAW grid and wavefunctions read in
 
   number of l-projection  operators is LMAX  =           6
   number of lm-projection operators is LMMAX =          18
 
  PAW_PBE Cr 06Sep2000                  :
 energy of atom  1       EATOM= -276.8859
 kinetic energy error for atom=    0.0012 (will be added to EATOM!!)
 
 
 POSCAR: Cr bulk bcc
  positions in direct lattice
  No initial velocities read in


 exchange-correlation table for PE
   RHO(1)=    0.500       N(1)  =     2000
   RHO(2)=  100.500       N(2)  =     4000
 


--------------------------------------------------------------------------------------------------------


 ion  position               nearest neighbor table
   1  0.000  0.000  0.000-
 

IMPORTANT INFORMATION: All symmetrisations will be switched off!
NOSYMM: (Re-)initialisation of all symmetry stuff for point group C_1.


----------------------------------------------------------------------------------------

                                     Primitive cell                                     

  volume of cell :      15.2530

  direct lattice vectors                    reciprocal lattice vectors
     2.480000000  0.000000000  0.000000000     0.403225806  0.000000000  0.000000000
     0.000000000  2.480000000  0.000000000     0.000000000  0.403225806  0.000000000
     0.000000000  0.000000000  2.480000000     0.000000000  0.000000000  0.403225806

  length of vectors
     2.480000000  2.480000000  2.480000000     0.403225806  0.403225806  0.403225806

  position of ions in fractional coordinates (direct lattice)
     0.000000000  0.000000000  0.000000000

  ion indices of the primitive-cell ions
   primitive index   ion index
                 1           1

----------------------------------------------------------------------------------------

 
 
 KPOINTS: Automatic mesh                          

Automatic generation of k-mesh.
 Grid dimensions read from file:
 generate k-points for:    6    6    4

 Generating k-lattice:

  Cartesian coordinates                     Fractional coordinates (reciprocal lattice)
     0.067204301  0.000000000  0.000000000     0.166666667  0.000000000  0.000000000
     0.000000000  0.067204301  0.000000000     0.000000000  0.166666667  0.000000000
     0.000000000  0.000000000  0.100806452     0.000000000  0.000000000  0.250000000

  Length of vectors
     0.067204301  0.067204301  0.100806452

  Shift w.r.t. Gamma in fractional coordinates (k-lattice)
     0.500000000  0.500000000  0.500000000

 -----------------------------------------------------------------------------
|                                                                             |
|           W    W    AA    RRRRR   N    N  II  N    N   GGGG   !!!           |
|           W    W   A  A   R    R  NN   N  II  NN   N  G    G  !!!           |
|           W    W  A    A  R    R  N N  N  II  N N  N  G       !!!           |
|           W WW W  AAAAAA  RRRRR   N  N N  II  N  N N  G  GGG   !            |
|           WW  WW  A    A  R   R   N   NN  II  N   NN  G    G                |
|           W    W  A    A  R    R  N    N  II  N    N   GGGG   !!!           |
|                                                                             |
|     Your reciprocal lattice and k-lattice belong to different lattice       |
|     classes:                                                                |
|                                                                             |
|        The reciprocal lattice is simple cubic,                              |
|        whereas your k-lattice is simple tetragonal.                         |
|                                                                             |
|     Results are often still useful ...                                      |
|                                                                             |
 -----------------------------------------------------------------------------

 WARNING: IBZKPT: internal override: KBLOWUP is changed to .FALSE.
      ... skipping the blow-up phase ...

 
 Subroutine IBZKPT returns following result:
 ===========================================
 
 Found     72 irreducible k-points:
 
 Following reciprocal coordinates:
            Coordinates               Weight
  0.083333  0.083333  0.125000      2.000000
  0.250000  0.083333  0.125000      2.000000
  0.416667  0.083333  0.125000      2.000000
 -0.416667  0.083333  0.125000      2.000000
 -0.250000  0.083333  0.125000      2.000000
 -0.083333  0.083333  0.125000      2.000000
  0.083333  0.250000  0.125000      2.000000
  0.250000  0.250000  0.125000      2.000000
  0.416667  0.250000  0.125000      2.000000
 -0.416667  0.250000  0.125000      2.000000
 -0.250000  0.250000  0.125000      2.000000
 -0.083333  0.250000  0.125000      2.000000
  0.083333  0.416667  0.125000      2.000000
  0.250000  0.416667  0.125000      2.000000
  0.416667  0.416667  0.125000      2.000000
 -0.416667  0.416667  0.125000      2.000000
 -0.250000  0.416667  0.125000      2.000000
 -0.083333  0.416667  0.125000      2.000000
  0.083333 -0.416667  0.125000      2.000000
  0.250000 -0.416667  0.125000      2.000000
  0.416667 -0.416667  0.125000      2.000000
 -0.416667 -0.416667  0.125000      2.000000
 -0.250000 -0.416667  0.125000      2.000000
 -0.083333 -0.416667  0.125000      2.000000
  0.083333 -0.250000  0.125000      2.000000
  0.250000 -0.250000  0.125000      2.000000
  0.416667 -0.250000  0.125000      2.000000
 -0.416667 -0.250000  0.125000      2.000000
 -0.250000 -0.250000  0.125000      2.000000
 -0.083333 -0.250000  0.125000      2.000000
  0.083333 -0.083333  0.125000      2.000000
  0.250000 -0.083333  0.125000      2.000000
  0.416667 -0.083333  0.125000      2.000000
 -0.416667 -0.083333  0.125000      2.000000
 -0.250000 -0.083333  0.125000      2.000000
 -0.083333 -0.083333  0.125000      2.000000
  0.083333  0.083333  0.375000      2.000000
  0.250000  0.083333  0.375000      2.000000
  0.416667  0.083333  0.375000      2.000000
 -0.416667  0.083333  0.375000      2.000000
 -0.250000  0.083333  0.375000      2.000000
 -0.083333  0.083333  0.375000      2.000000
  0.083333  0.250000  0.375000      2.000000
  0.250000  0.250000  0.375000      2.000000
  0.416667  0.250000  0.375000      2.000000
 -0.416667  0.250000  0.375000      2.000000
 -0.250000  0.250000  0.375000      2.000000
 -0.083333  0.250000  0.375000      2.000000
  0.083333  0.416667  0.375000      2.000000
  0.250000  0.416667  0.375000      2.000000
  0.416667  0.416667  0.375000      2.000000
 -0.416667  0.416667  0.375000      2.000000
 -0.250000  0.416667  0.375000      2.000000
 -0.083333  0.416667  0.375000      2.000000
  0.083333 -0.416667  0.375000      2.000000
  0.250000 -0.416667  0.375000      2.000000
  0.416667 -0.416667  0.375000      2.000000
 -0.416667 -0.416667  0.375000      2.000000
 -0.250000 -0.416667  0.375000      2.000000
 -0.083333 -0.416667  0.375000      2.000000
  0.083333 -0.250000  0.375000      2.000000
  0.250000 -0.250000  0.375000      2.000000
  0.416667 -0.250000  0.375000      2.000000
 -0.416667 -0.250000  0.375000      2.000000
 -0.250000 -0.250000  0.375000      2.000000
 -0.083333 -0.250000  0.375000      2.000000
  0.083333 -0.083333  0.375000      2.000000
  0.250000 -0.083333  0.375000      2.000000
  0.416667 -0.083333  0.375000      2.000000
 -0.416667 -0.083333  0.375000      2.000000
 -0.250000 -0.083333  0.375000      2.000000
 -0.083333 -0.083333  0.375000      2.000000
 
 Following cartesian coordinates:
            Coordinates               Weight
  0.033602  0.033602  0.050403      2.000000
  0.100806  0.033602  0.050403      2.000000
  0.168011  0.033602  0.050403      2.000000
 -0.168011  0.033602  0.050403      2.000000
 -0.100806  0.033602  0.050403      2.000000
 -0.033602  0.033602  0.050403      2.000000
  0.033602  0.100806  0.050403      2.000000
  0.100806  0.100806  0.050403      2.000000
  0.168011  0.100806  0.050403      2.000000
 -0.168011  0.100806  0.050403      2.000000
 -0.100806  0.100806  0.050403      2.000000
 -0.033602  0.100806  0.050403      2.000000
  0.033602  0.168011  0.050403      2.000000
  0.100806  0.168011  0.050403      2.000000
  0.168011  0.168011  0.050403      2.000000
 -0.168011  0.168011  0.050403      2.000000
 -0.100806  0.168011  0.050403      2.000000
 -0.033602  0.168011  0.050403      2.000000
  0.033602 -0.168011  0.050403      2.000000
  0.100806 -0.168011  0.050403      2.000000
  0.168011 -0.168011  0.050403      2.000000
 -0.168011 -0.168011  0.050403      2.000000
 -0.100806 -0.168011  0.050403      2.000000
 -0.033602 -0.168011  0.050403      2.000000
  0.033602 -0.100806  0.050403      2.000000
  0.100806 -0.100806  0.050403      2.000000
  0.168011 -0.100806  0.050403      2.000000
 -0.168011 -0.100806  0.050403      2.000000
 -0.100806 -0.100806  0.050403      2.000000
 -0.033602 -0.100806  0.050403      2.000000
  0.033602 -0.033602  0.050403      2.000000
  0.100806 -0.033602  0.050403      2.000000
  0.168011 -0.033602  0.050403      2.000000
 -0.168011 -0.033602  0.050403      2.000000
 -0.100806 -0.033602  0.050403      2.000000
 -0.033602 -0.033602  0.050403      2.000000
  0.033602  0.033602  0.151210      2.000000
  0.100806  0.033602  0.151210      2.000000
  0.168011  0.033602  0.151210      2.000000
 -0.168011  0.033602  0.151210      2.000000
 -0.100806  0.033602  0.151210      2.000000
 -0.033602  0.033602  0.151210      2.000000
  0.033602  0.100806  0.151210      2.000000
  0.100806  0.100806  0.151210      2.000000
  0.168011  0.100806  0.151210      2.000000
 -0.168011  0.100806  0.151210      2.000000
 -0.100806  0.100806  0.151210      2.000000
 -0.033602  0.100806  0.151210      2.000000
  0.033602  0.168011  0.151210      2.000000
  0.100806  0.168011  0.151210      2.000000
  0.168011  0.168011  0.151210      2.000000
 -0.168011  0.168011  0.151210      2.000000
 -0.100806  0.168011  0.151210      2.000000
 -0.033602  0.168011  0.151210      2.000000
  0.033602 -0.168011  0.151210      2.000000
  0.100806 -0.168011  0.151210      2.000000
  0.168011 -0.168011  0.151210      2.000000
 -0.168011 -0.168011  0.151210      2.000000
 -0.100806 -0.168011  0.151210      2.000000
 -0.033602 -0.168011  0.151210      2.000000
  0.033602 -0.100806  0.151210      2.000000
  0.100806 -0.100806  0.151210      2.000000
  0.168011 -0.100806  0.151210      2.000000
 -0.168011 -0.100806  0.151210      2.000000
 -0.100806 -0.100806  0.151210      2.000000
 -0.033602 -0.100806  0.151210      2.000000
  0.033602 -0.033602  0.151210      2.000000
  0.100806 -0.033602  0.151210      2.000000
  0.168011 -0.033602  0.151210      2.000000
 -0.168011 -0.033602  0.151210      2.000000
 -0.100806 -0.033602  0.151210      2.000000
 -0.033602 -0.033602  0.151210      2.000000
 


--------------------------------------------------------------------------------------------------------




 Dimension of arrays:
   k-points           NKPTS =     72   k-points in BZ     NKDIM =     72   number of bands    NBANDS=     42
   number of dos      NEDOS =    301   number of ions     NIONS =      1
   non local maximal  LDIM  =      6   non local SUM 2l+1 LMDIM =     18
   total plane-waves  NPLWV =   5832
   max r-space proj   IRMAX =      1   max aug-charges    IRDMAX=  19730
   dimension x,y,z NGX =    18 NGY =   18 NGZ =   18
   dimension x,y,z NGXF=    36 NGYF=   36 NGZF=   36
   support grid    NGXF=    36 NGYF=   36 NGZF=   36
   ions per type =               1
   NGX,Y,Z   is equivalent  to a cutoff of  12.07, 12.07, 12.07 a.u.
   NGXF,Y,Z  is equivalent  to a cutoff of  24.13, 24.13, 24.13 a.u.

 SYSTEM =  unknown system                          
 POSCAR =  Cr bulk bcc                             

 Startparameter for this run:
   NWRITE =      2    write-flag & timer
   PREC   = accura    normal or accurate (medium, high low for compatibility)
   ISTART =      0    job   : 0-new  1-cont  2-samecut
   ICHARG =      2    charge: 1-file 2-atom 10-const
   ISPIN  =      2    spin polarized calculation?
   LNONCOLLINEAR =      F non collinear calculations
   LSORBIT =      F    spin-orbit coupling
   INIWAV =      1    electr: 0-lowe 1-rand  2-diag
   LASPH  =      F    aspherical Exc in radial PAW
 Electronic Relaxation 1
   ENCUT  =  500.0 eV  36.75 Ry    6.06 a.u.   4.52  4.52  4.52*2*pi/ulx,y,z
   ENINI  =  500.0     initial cutoff
   ENAUG  =  402.1 eV  augmentation charge cutoff
   NELM   =     60;   NELMIN=  2; NELMDL= -5     # of ELM steps 
   EDIFF  = 0.1E-05   stopping-criterion for ELM
   LREAL  =      F    real-space projection
   NLSPLINE    = F    spline interpolate recip. space projectors
   LCOMPAT=      F    compatible to vasp.4.4
   GGA_COMPAT  = T    GGA compatible to vasp.4.4-vasp.4.6
   LMAXPAW     = -100 max onsite density
   LMAXMIX     =    2 max onsite mixed and CHGCAR
   VOSKOWN=      0    Vosko Wilk Nusair interpolation
   ROPT   =    0.00000
 Ionic relaxation
   EDIFFG = 0.1E-04   stopping-criterion for IOM
   NSW    =      0    number of steps for IOM
   NBLOCK =      1;   KBLOCK =      1    inner block; outer block 
   IBRION =     -1    ionic relax: 0-MD 1-quasi-New 2-CG
   NFREE  =      0    steps in history (QN), initial steepest desc. (CG)
   ISIF   =      2    stress and relaxation
   IWAVPR =     10    prediction:  0-non 1-charg 2-wave 3-comb
   ISYM   =      0    0-nonsym 1-usesym 2-fastsym
   LCORR  =      T    Harris-Foulkes like correction to forces

   POTIM  = 0.5000    time-step for ionic-motion
   TEIN   =    0.0    initial temperature
   TEBEG  =    0.0;   TEEND  =   0.0 temperature during run
   SMASS  =  -3.00    Nose mass-parameter (am)
   estimated Nose-frequenzy (Omega)   =  0.10E-29 period in steps = 0.13E+47 mass=  -0.141E-27a.u.
   SCALEE = 1.0000    scale energy and forces
   NPACO  =    256;   APACO  = 10.0  distance and # of slots for P.C.
   PSTRESS=    0.0 pullay stress

  Mass of Ions in am
   POMASS =  52.00
  Ionic Valenz
   ZVAL   =   6.00
  Atomic Wigner-Seitz radii
   RWIGS  =  -1.00
  virtual crystal weights 
   VCA    =   1.00
   NELECT =       6.0000    total number of electrons
   NUPDOWN=      -1.0000    fix difference up-down

 DOS related values:
   EMIN   =  10.00;   EMAX   =-10.00  energy-range for DOS
   EFERMI =   0.00;   METHOD = LEGACY      
   ISMEAR =     0;   SIGMA  =   0.05  broadening in eV -4-tet -1-fermi 0-gaus
   EFERMI_NEDOS =   21; number of points for ismear=-14 and -15

 Electronic relaxation 2 (details)
   IALGO  =     38    algorithm
   LDIAG  =      T    sub-space diagonalisation (order eigenvalues)
   LSUBROT=      F    optimize rotation matrix (better conditioning)
   LROBUST=      F    robust break criterion during scf (extrapolated energy error)
   ISEARCH=      0    line search for conjugate gradient (0, 1=use gradient)
   TURBO    =      0    0=normal 1=particle mesh
   IRESTART =      0    0=no restart 2=restart with 2 vectors
   NREBOOT  =      0    no. of reboots
   NMIN     =      0    reboot dimension
   EREF     =   0.00    reference energy to select bands
   IMIX   =      4    mixing-type and parameters
     AMIX     =   0.40;   BMIX     =  1.00
     AMIX_MAG =   1.60;   BMIX_MAG =  1.00
     AMIN     =   0.10
     WC   =   100.;   INIMIX=   1;  MIXPRE=   1;  MAXMIX= -45

 Intra band minimization:
   WEIMIN = 0.0000     energy-eigenvalue tresh-hold
   EBREAK =  0.60E-08  absolut break condition
   DEPER  =   0.30     relativ break condition  

   TIME   =   0.40     timestep for ELM

  volume/ion in A,a.u.               =      15.25       102.93
  Fermi-wavevector in a.u.,A,eV,Ry     =   1.199518  2.266761 19.576665  1.438844
  Thomas-Fermi vector in A             =   2.335379
 
 Write flags
   LWAVE        =      F    write WAVECAR
   LDOWNSAMPLE  =      F    k-point downsampling of WAVECAR
   LCHARG       =      F    write CHGCAR
   LVTOT        =      F    write LOCPOT, total local potential
   LVHAR        =      F    write LOCPOT, Hartree potential only
   WRT_POTENTIAL= false  ! write potential to hdf5 file
   LELF         =      F    write electronic localiz. function (ELF)
   LORBIT       =      0    0 simple, 1 ext, 2 COOP (PROOUT), +10 PAW based schemes


 Python interface
   PLUGINS active      =      F    recompile with -DPLUGINS to activate
 
 Dipole corrections
   LMONO      =      F    monopole corrections only (constant potential shift)
   LDIPOL     =      F    correct potential (dipole corrections)
   IDIPOL     =      0    1-x, 2-y, 3-z, 4-all directions 
   EPSILON    =  1.0000000 bulk dielectric constant
   LVACPOTAV  =      F  vacuum potentials using an averaging scheme for the charge density
   VACPOTFLAT =  0.1000000 required flatness to determine vacuum potential
 
Coulomb truncation method
  LTRUNCATE          =      F  Coulomb kernel truncation to be used

 
 Exchange correlation treatment:
   GGA     = PE    functional components
   XC_C    = 1    coefficients multiplying the functional components
   LIBXC   =     F    Libxc                    
   VOSKOWN =     0    Vosko Wilk Nusair interpolation
   LHFCALC =     F    Hartree Fock is set to
   LHFONE  =     F    Hartree Fock one center treatment
   AEXX    =    0.0000 exact exchange contribution

 Parameters of functionals:
   PE:
     No parameter
 
 Van der Waals corrections
   IVDW    =     0    specifies the selected vdW correction

 Linear response parameters
   LEPSILON=     F    determine dielectric tensor
   LRPA    =     F    only Hartree local field effects (RPA)
   LNABLA  =     F    use nabla operator in PAW spheres
   LVEL    =     F    velocity operator in full k-point grid
   CSHIFT  =0.1000    complex shift for real part using Kramers Kronig
   OMEGAMAX=  -1.0    maximum frequency
   DEG_THRESHOLD= 0.2000000E-02 threshold for treating states as degnerate
   RTIME   =   -0.100 relaxation time in fs
  (WPLASMAI=    0.000 imaginary part of plasma frequency in eV, 0.658/RTIME)
   DFIELD  = 0.0000000 0.0000000 0.0000000 field for delta impulse in time
 
  Optional k-point grid parameters
   LKPOINTS_OPT  =     F    use optional k-point grid
   KPOINTS_OPT_MODE=     1    mode for optional k-point grid
 
 Orbital magnetization related:
   ORBITALMAG=     F  switch on orbital magnetization
   LCHIMAG   =     F  perturbation theory with respect to B field
   DQ        =  0.001000  dq finite difference perturbation B field
   LLRAUG    =     F  two centre corrections for induced B field
   LBONE     =     F  B-component reconstruction in AE one-centre
   LVGVCALC  =     T  calculate vGv susceptibility
   LVGVAPPL  =     F  apply vGv susceptibility instead of pGv for G=0

 Random number generation:
   RANDOM_GENERATOR = DEFAULT
   PCG_SEED         = not used


--------------------------------------------------------------------------------------------------------


 Static calculation
 charge density and potential will be updated during run
 spin polarized calculation
 Variant of blocked Davidson
 Davidson routine will perform the subspace rotation
 perform sub-space diagonalisation
    after iterative eigenvector-optimisation
 modified Broyden-mixing scheme, WC =      100.0
 initial mixing is a Kerker type mixing with AMIX =  0.4000 and BMIX =      1.0000
 Hartree-type preconditioning will be used
 using additional bands           39
 reciprocal scheme for non local part
 use partial core corrections
 calculate Harris-corrections to forces 
   (improved forces if not selfconsistent)
 use gradient corrections 
 use of overlap-Matrix (Vanderbilt PP)
 Gauss-broadening in eV      SIGMA  =   0.05


--------------------------------------------------------------------------------------------------------


  energy-cutoff  :      500.00
  volume of cell :       15.25
      direct lattice vectors                 reciprocal lattice vectors
     2.480000000  0.000000000  0.000000000     0.403225806  0.000000000  0.000000000
     0.000000000  2.480000000  0.000000000     0.000000000  0.403225806  0.000000000
     0.000000000  0.000000000  2.480000000     0.000000000  0.000000000  0.403225806

  length of vectors
     2.480000000  2.480000000  2.480000000     0.403225806  0.403225806  0.403225806


 
 k-points in units of 2pi/SCALE and weight: Automatic mesh                          
   0.03360215  0.03360215  0.05040323       0.014
   0.10080645  0.03360215  0.05040323       0.014
   0.16801075  0.03360215  0.05040323       0.014
  -0.16801075  0.03360215  0.05040323       0.014
  -0.10080645  0.03360215  0.05040323       0.014
  -0.03360215  0.03360215  0.05040323       0.014
   0.03360215  0.10080645  0.05040323       0.014
   0.10080645  0.10080645  0.05040323       0.014
   0.16801075  0.10080645  0.05040323       0.014
  -0.16801075  0.10080645  0.05040323       0.014
  -0.10080645  0.10080645  0.05040323       0.014
  -0.03360215  0.10080645  0.05040323       0.014
   0.03360215  0.16801075  0.05040323       0.014
   0.10080645  0.16801075  0.05040323       0.014
   0.16801075  0.16801075  0.05040323       0.014
  -0.16801075  0.16801075  0.05040323       0.014
  -0.10080645  0.16801075  0.05040323       0.014
  -0.03360215  0.16801075  0.05040323       0.014
   0.03360215 -0.16801075  0.05040323       0.014
   0.10080645 -0.16801075  0.05040323       0.014
   0.16801075 -0.16801075  0.05040323       0.014
  -0.16801075 -0.16801075  0.05040323       0.014
  -0.10080645 -0.16801075  0.05040323       0.014
  -0.03360215 -0.16801075  0.05040323       0.014
   0.03360215 -0.10080645  0.05040323       0.014
   0.10080645 -0.10080645  0.05040323       0.014
   0.16801075 -0.10080645  0.05040323       0.014
  -0.16801075 -0.10080645  0.05040323       0.014
  -0.10080645 -0.10080645  0.05040323       0.014
  -0.03360215 -0.10080645  0.05040323       0.014
   0.03360215 -0.03360215  0.05040323       0.014
   0.10080645 -0.03360215  0.05040323       0.014
   0.16801075 -0.03360215  0.05040323       0.014
  -0.16801075 -0.03360215  0.05040323       0.014
  -0.10080645 -0.03360215  0.05040323       0.014
  -0.03360215 -0.03360215  0.05040323       0.014
   0.03360215  0.03360215  0.15120968       0.014
   0.10080645  0.03360215  0.15120968       0.014
   0.16801075  0.03360215  0.15120968       0.014
  -0.16801075  0.03360215  0.15120968       0.014
  -0.10080645  0.03360215  0.15120968       0.014
  -0.03360215  0.03360215  0.15120968       0.014
   0.03360215  0.10080645  0.15120968       0.014
   0.10080645  0.10080645  0.15120968       0.014
   0.16801075  0.10080645  0.15120968       0.014
  -0.16801075  0.10080645  0.15120968       0.014
  -0.10080645  0.10080645  0.15120968       0.014
  -0.03360215  0.10080645  0.15120968       0.014
   0.03360215  0.16801075  0.15120968       0.014
   0.10080645  0.16801075  0.15120968       0.014
   0.16801075  0.16801075  0.15120968       0.014
  -0.16801075  0.16801075  0.15120968       0.014
  -0.10080645  0.16801075  0.15120968       0.014
  -0.03360215  0.16801075  0.15120968       0.014
   0.03360215 -0.16801075  0.15120968       0.014
   0.10080645 -0.16801075  0.15120968       0.014
   0.16801075 -0.16801075  0.15120968       0.014
  -0.16801075 -0.16801075  0.15120968       0.014
  -0.10080645 -0.16801075  0.15120968       0.014
  -0.03360215 -0.16801075  0.15120968       0.014
   0.03360215 -0.10080645  0.15120968       0.014
   0.10080645 -0.10080645  0.15120968       0.014
   0.16801075 -0.10080645  0.15120968       0.014
  -0.16801075 -0.10080645  0.15120968       0.014
  -0.10080645 -0.10080645  0.15120968       0.014
  -0.03360215 -0.10080645  0.15120968       0.014
   0.03360215 -0.03360215  0.15120968       0.014
   0.10080645 -0.03360215  0.15120968       0.014
   0.16801075 -0.03360215  0.15120968       0.014
  -0.16801075 -0.03360215  0.15120968       0.014
  -0.10080645 -0.03360215  0.15120968       0.014
  -0.03360215 -0.03360215  0.15120968       0.014
 
 k-points in reciprocal lattice and weights: Automatic mesh                          
   0.08333333  0.08333333  0.12500000       0.014
   0.25000000  0.08333333  0.12500000       0.014
   0.41666667  0.08333333  0.12500000       0.014
  -0.41666667  0.08333333  0.12500000       0.014
  -0.25000000  0.08333333  0.12500000       0.014
  -0.08333333  0.08333333  0.12500000       0.014
   0.08333333  0.25000000  0.12500000       0.014
   0.25000000  0.25000000  0.12500000       0.014
   0.41666667  0.25000000  0.12500000       0.014
  -0.41666667  0.25000000  0.12500000       0.014
  -0.25000000  0.25000000  0.12500000       0.014
  -0.08333333  0.25000000  0.12500000       0.014
   0.08333333  0.41666667  0.12500000       0.014
   0.25000000  0.41666667  0.12500000       0.014
   0.41666667  0.41666667  0.12500000       0.014
  -0.41666667  0.41666667  0.12500000       0.014
  -0.25000000  0.41666667  0.12500000       0.014
  -0.08333333  0.41666667  0.12500000       0.014
   0.08333333 -0.41666667  0.12500000       0.014
   0.25000000 -0.41666667  0.12500000       0.014
   0.41666667 -0.41666667  0.12500000       0.014
  -0.41666667 -0.41666667  0.12500000       0.014
  -0.25000000 -0.41666667  0.12500000       0.014
  -0.08333333 -0.41666667  0.12500000       0.014
   0.08333333 -0.25000000  0.12500000       0.014
   0.25000000 -0.25000000  0.12500000       0.014
   0.41666667 -0.25000000  0.12500000       0.014
  -0.41666667 -0.25000000  0.12500000       0.014
  -0.25000000 -0.25000000  0.12500000       0.014
  -0.08333333 -0.25000000  0.12500000       0.014
   0.08333333 -0.08333333  0.12500000       0.014
   0.25000000 -0.08333333  0.12500000       0.014
   0.41666667 -0.08333333  0.12500000       0.014
  -0.41666667 -0.08333333  0.12500000       0.014
  -0.25000000 -0.08333333  0.12500000       0.014
  -0.08333333 -0.08333333  0.12500000       0.014
   0.08333333  0.08333333  0.37500000       0.014
   0.25000000  0.08333333  0.37500000       0.014
   0.41666667  0.08333333  0.37500000       0.014
  -0.41666667  0.08333333  0.37500000       0.014
  -0.25000000  0.08333333  0.37500000       0.014
  -0.08333333  0.08333333  0.37500000       0.014
   0.08333333  0.25000000  0.37500000       0.014
   0.25000000  0.25000000  0.37500000       0.014
   0.41666667  0.25000000  0.37500000       0.014
  -0.41666667  0.25000000  0.37500000       0.014
  -0.25000000  0.25000000  0.37500000       0.014
  -0.08333333  0.25000000  0.37500000       0.014
   0.08333333  0.41666667  0.37500000       0.014
   0.25000000  0.41666667  0.37500000       0.014
   0.41666667  0.41666667  0.37500000       0.014
  -0.41666667  0.41666667  0.37500000       0.014
  -0.25000000  0.41666667  0.37500000       0.014
  -0.08333333  0.41666667  0.37500000       0.014
   0.08333333 -0.41666667  0.37500000       0.014
   0.25000000 -0.41666667  0.37500000       0.014
   0.41666667 -0.41666667  0.37500000       0.014
  -0.41666667 -0.41666667  0.37500000       0.014
  -0.25000000 -0.41666667  0.37500000       0.014
  -0.08333333 -0.41666667  0.37500000       0.014
   0.08333333 -0.25000000  0.37500000       0.014
   0.25000000 -0.25000000  0.37500000       0.014
   0.41666667 -0.25000000  0.37500000       0.014
  -0.41666667 -0.25000000  0.37500000       0.014
  -0.25000000 -0.25000000  0.37500000       0.014
  -0.08333333 -0.25000000  0.37500000       0.014
   0.08333333 -0.08333333  0.37500000       0.014
   0.25000000 -0.08333333  0.37500000       0.014
   0.41666667 -0.08333333  0.37500000       0.014
  -0.41666667 -0.08333333  0.37500000       0.014
  -0.25000000 -0.08333333  0.37500000       0.014
  -0.08333333 -0.08333333  0.37500000       0.014
 
 position of ions in fractional coordinates (direct lattice) 
   0.00000000  0.00000000  0.00000000
 
 position of ions in cartesian coordinates  (Angst):
   0.00000000  0.00000000  0.00000000
 


--------------------------------------------------------------------------------------------------------


 k-point     1 :   0.0833 0.0833 0.1250  plane waves:     393
 k-point     2 :   0.2500 0.0833 0.1250  plane waves:     396
 k-point     3 :   0.4167 0.0833 0.1250  plane waves:     387
 k-point     4 :  -0.4167 0.0833 0.1250  plane waves:     387
 k-point     5 :  -0.2500 0.0833 0.1250  plane waves:     396
 k-point     6 :  -0.0833 0.0833 0.1250  plane waves:     393
 k-point     7 :   0.0833 0.2500 0.1250  plane waves:     396
 k-point     8 :   0.2500 0.2500 0.1250  plane waves:     396
 k-point     9 :   0.4167 0.2500 0.1250  plane waves:     384
 k-point    10 :  -0.4167 0.2500 0.1250  plane waves:     384
 k-point    11 :  -0.2500 0.2500 0.1250  plane waves:     396
 k-point    12 :  -0.0833 0.2500 0.1250  plane waves:     396
 k-point    13 :   0.0833 0.4167 0.1250  plane waves:     387
 k-point    14 :   0.2500 0.4167 0.1250  plane waves:     384
 k-point    15 :   0.4167 0.4167 0.1250  plane waves:     383
 k-point    16 :  -0.4167 0.4167 0.1250  plane waves:     383
 k-point    17 :  -0.2500 0.4167 0.1250  plane waves:     384
 k-point    18 :  -0.0833 0.4167 0.1250  plane waves:     387
 k-point    19 :   0.0833-0.4167 0.1250  plane waves:     387
 k-point    20 :   0.2500-0.4167 0.1250  plane waves:     384
 k-point    21 :   0.4167-0.4167 0.1250  plane waves:     383
 k-point    22 :  -0.4167-0.4167 0.1250  plane waves:     383
 k-point    23 :  -0.2500-0.4167 0.1250  plane waves:     384
 k-point    24 :  -0.0833-0.4167 0.1250  plane waves:     387
 k-point    25 :   0.0833-0.2500 0.1250  plane waves:     396
 k-point    26 :   0.2500-0.2500 0.1250  plane waves:     396
 k-point    27 :   0.4167-0.2500 0.1250  plane waves:     384
 k-point    28 :  -0.4167-0.2500 0.1250  plane waves:     384
 k-point    29 :  -0.2500-0.2500 0.1250  plane waves:     396
 k-point    30 :  -0.0833-0.2500 0.1250  plane waves:     396
 k-point    31 :   0.0833-0.0833 0.1250  plane waves:     393
 k-point    32 :   0.2500-0.0833 0.1250  plane waves:     396
 k-point    33 :   0.4167-0.0833 0.1250  plane waves:     387
 k-point    34 :  -0.4167-0.0833 0.1250  plane waves:     387
 k-point    35 :  -0.2500-0.0833 0.1250  plane waves:     396
 k-point    36 :  -0.0833-0.0833 0.1250  plane waves:     393
 k-point    37 :   0.0833 0.0833 0.3750  plane waves:     387
 k-point    38 :   0.2500 0.0833 0.3750  plane waves:     385
 k-point    39 :   0.4167 0.0833 0.3750  plane waves:     381
 k-point    40 :  -0.4167 0.0833 0.3750  plane waves:     381
 k-point    41 :  -0.2500 0.0833 0.3750  plane waves:     385
 k-point    42 :  -0.0833 0.0833 0.3750  plane waves:     387
 k-point    43 :   0.0833 0.2500 0.3750  plane waves:     385
 k-point    44 :   0.2500 0.2500 0.3750  plane waves:     382
 k-point    45 :   0.4167 0.2500 0.3750  plane waves:     386
 k-point    46 :  -0.4167 0.2500 0.3750  plane waves:     386
 k-point    47 :  -0.2500 0.2500 0.3750  plane waves:     382
 k-point    48 :  -0.0833 0.2500 0.3750  plane waves:     385
 k-point    49 :   0.0833 0.4167 0.3750  plane waves:     381
 k-point    50 :   0.2500 0.4167 0.3750  plane waves:     386
 k-point    51 :   0.4167 0.4167 0.3750  plane waves:     388
 k-point    52 :  -0.4167 0.4167 0.3750  plane waves:     388
 k-point    53 :  -0.2500 0.4167 0.3750  plane waves:     386
 k-point    54 :  -0.0833 0.4167 0.3750  plane waves:     381
 k-point    55 :   0.0833-0.4167 0.3750  plane waves:     381
 k-point    56 :   0.2500-0.4167 0.3750  plane waves:     386
 k-point    57 :   0.4167-0.4167 0.3750  plane waves:     388
 k-point    58 :  -0.4167-0.4167 0.3750  plane waves:     388
 k-point    59 :  -0.2500-0.4167 0.3750  plane waves:     386
 k-point    60 :  -0.0833-0.4167 0.3750  plane waves:     381
 k-point    61 :   0.0833-0.2500 0.3750  plane waves:     385
 k-point    62 :   0.2500-0.2500 0.3750  plane waves:     382
 k-point    63 :   0.4167-0.2500 0.3750  plane waves:     386
 k-point    64 :  -0.4167-0.2500 0.3750  plane waves:     386
 k-point    65 :  -0.2500-0.2500 0.3750  plane waves:     382
 k-point    66 :  -0.0833-0.2500 0.3750  plane waves:     385
 k-point    67 :   0.0833-0.0833 0.3750  plane waves:     387
 k-point    68 :   0.2500-0.0833 0.3750  plane waves:     385
 k-point    69 :   0.4167-0.0833 0.3750  plane waves:     381
 k-point    70 :  -0.4167-0.0833 0.3750  plane waves:     381
 k-point    71 :  -0.2500-0.0833 0.3750  plane waves:     385
 k-point    72 :  -0.0833-0.0833 0.3750  plane waves:     387

 maximum and minimum number of plane-waves per node :       396      381

 maximum number of plane-waves:       396
 maximum index in each direction: 
   IXMAX=    4   IYMAX=    4   IZMAX=    4
   IXMIN=   -4   IYMIN=   -4   IZMIN=   -4


 serial   3D FFT for wavefunctions
 parallel 3D FFT for charge:
    minimum data exchange during FFTs selected (reduces bandwidth)


 total amount of memory used by VASP MPI-rank0    36107. kBytes
=======================================================================

   base                                    :      30000. kBytes
   nonl-proj                               :       4361. kBytes
   fftplans                                :         77. kBytes
   grid                                    :        574. kBytes
   one-center                              :         31. kBytes
   wavefun                                 :       1064. kBytes
 
     INWAV:  cpu time      0.0000: real time      0.0000
 Broyden mixing: mesh for mixing (old mesh)
   NGX =  9   NGY =  9   NGZ =  9
  (NGX  = 36   NGY  = 36   NGZ  = 36)
  gives a total of    729 points

 initial charge density was supplied:
 charge density of overlapping atoms calculated
 number of electron       6.0000000 magnetization       5.0000000
 keeping initial charge density in first step


--------------------------------------------------------------------------------------------------------


 Maximum index for augmentation-charges          861 (set IRDMAX)


--------------------------------------------------------------------------------------------------------


 First call to EWALD:  gamma=   0.715
 Maximum number of real-space cells   3x   3x   3
 Maximum number of reciprocal cells   3x   3x   3

    FEWALD:  cpu time      0.1159: real time      0.2229


--------------------------------------- Ionic step        1  -------------------------------------------




--------------------------------------- Iteration      1(   1)  ---------------------------------------


    POTLOK:  cpu time      2.9993: real time      6.0041
    SETDIJ:  cpu time      0.1019: real time      0.2059
     EDDAV:  cpu time    248.2176: real time    496.4800
       DOS:  cpu time      0.7920: real time      1.5820
    --------------------------------------------
      LOOP:  cpu time    252.1108: real time    504.2720

 eigenvalue-minimisations  : 15624
 total energy-change (2. order) :-0.6295041E+01  (-0.2945613E+03)
 number of electron       6.0000000 magnetization       5.0000000
 augmentation part        6.0000000 magnetization       5.0000000

 Free energy of the ion-electron system (eV)
  ---------------------------------------------------
  alpha Z        PSCENC =        27.09645045
  Ewald energy   TEWEN  =      -296.53896782
  -Hartree energ DENC   =       -43.91947793
  -exchange      EXHF   =         0.00000000
  -V(xc)+E(xc)   XCENC  =       -16.34484621
  PAW double counting   =       274.56471105     -255.13504988
  entropy T*S    EENTRO =        -0.00439717
  eigenvalues    EBANDS =        27.10184443
  atomic energy  EATOM  =       276.88469247
  Solvation  Ediel_sol  =         0.00000000
  ---------------------------------------------------
  free energy    TOTEN  =        -6.29504061 eV

  energy without entropy =       -6.29064344  energy(sigma->0) =       -6.29284202


--------------------------------------------------------------------------------------------------------




--------------------------------------- Iteration      1(   2)  ---------------------------------------


     EDDAV:  cpu time    229.6668: real time    459.3720
       DOS:  cpu time      0.6729: real time      1.3360
    --------------------------------------------
      LOOP:  cpu time    230.3398: real time    460.7080

 eigenvalue-minimisations  : 14952
 total energy-change (2. order) :-0.8890072E+00  (-0.8119708E+00)
 number of electron       6.0000000 magnetization       5.0000000
 augmentation part        6.0000000 magnetization       5.0000000

 Free energy of the ion-electron system (eV)
  ---------------------------------------------------
  alpha Z        PSCENC =        27.09645045
  Ewald energy   TEWEN  =      -296.53896782
  -Hartree energ DENC   =       -43.91947793
  -exchange      EXHF   =         0.00000000
  -V(xc)+E(xc)   XCENC  =       -16.34484621
  PAW double counting   =       274.56471105     -255.13504988
  entropy T*S    EENTRO =        -0.00392600
  eigenvalues    EBANDS =        26.21236609
  atomic energy  EATOM  =       276.88469247
  Solvation  Ediel_sol  =         0.00000000
  ---------------------------------------------------
  free energy    TOTEN  =        -7.18404777 eV

  energy without entropy =       -7.18012178  energy(sigma->0) =       -7.18208478


--------------------------------------------------------------------------------------------------------




--------------------------------------- Iteration      1(   3)  ---------------------------------------


     EDDAV:  cpu time    260.3426: real time    520.7250
       DOS:  cpu time      0.6843: real time      1.3724
    --------------------------------------------
      LOOP:  cpu time    261.0271: real time    522.0975

 eigenvalue-minimisations  : 18102
 total energy-change (2. order) :-0.2440343E-03  (-0.2440171E-03)
 number of electron       6.0000000 magnetization       5.0000000
 augmentation part        6.0000000 magnetization       5.0000000

 Free energy of the ion-electron system (eV)
  ---------------------------------------------------
  alpha Z        PSCENC =        27.09645045
  Ewald energy   TEWEN  =      -296.53896782
  -Hartree energ DENC   =       -43.91947793
  -exchange      EXHF   =         0.00000000
  -V(xc)+E(xc)   XCENC  =       -16.34484621
  PAW double counting   =       274.56471105     -255.13504988
  entropy T*S    EENTRO =        -0.00392493
  eigenvalues    EBANDS =        26.21212100
  atomic energy  EATOM  =       276.88469247
  Solvation  Ediel_sol  =         0.00000000
  ---------------------------------------------------
  free energy    TOTEN  =        -7.18429181 eV

  energy without entropy =       -7.18036688  energy(sigma->0) =       -7.18232934


--------------------------------------------------------------------------------------------------------




--------------------------------------- Iteration      1(   4)  ---------------------------------------


     EDDAV:  cpu time    233.5558: real time    467.1536
       DOS:  cpu time      0.5690: real time      1.1400
    --------------------------------------------
      LOOP:  cpu time    234.1247: real time    468.2935

 eigenvalue-minimisations  : 16464
 total energy-change (2. order) :-0.3655714E-08  (-0.3534169E-08)
 number of electron       6.0000000 magnetization       5.0000000
 augmentation part        6.0000000 magnetization       5.0000000

 Free energy of the ion-electron system (eV)
  ---------------------------------------------------
  alpha Z        PSCENC =        27.09645045
  Ewald energy   TEWEN  =      -296.53896782
  -Hartree energ DENC   =       -43.91947793
  -exchange      EXHF   =         0.00000000
  -V(xc)+E(xc)   XCENC  =       -16.34484621
  PAW double counting   =       274.56471105     -255.13504988
  entropy T*S    EENTRO =        -0.00392493
  eigenvalues    EBANDS =        26.21212099
  atomic energy  EATOM  =       276.88469247
  Solvation  Ediel_sol  =         0.00000000
  ---------------------------------------------------
  free energy    TOTEN  =        -7.18429181 eV

  energy without entropy =       -7.18036688  energy(sigma->0) =       -7.18232935


--------------------------------------------------------------------------------------------------------




--------------------------------------- Iteration      1(   5)  ---------------------------------------


     EDDAV:  cpu time    249.2076: real time    498.4540
       DOS:  cpu time      0.6081: real time      1.2150
    CHARGE:  cpu time      0.6509: real time      1.3100
    MIXING:  cpu time      0.2409: real time      0.4740
    --------------------------------------------
      LOOP:  cpu time    250.7075: real time    501.4530

 eigenvalue-minimisations  : 17052
 total energy-change (2. order) :-0.4158096E-09  (-0.7578154E-13)
 number of electron       6.0000000 magnetization       2.3126210
 augmentation part        2.3272044 magnetization       0.9036822

 Broyden mixing:
  rms(total) = 0.98946E+00    rms(broyden)= 0.98946E+00
  rms(prec ) = 0.19361E+01
  weight for this iteration     100.00

 Free energy of the ion-electron system (eV)
  ---------------------------------------------------
  alpha Z        PSCENC =        27.09645045
  Ewald energy   TEWEN  =      -296.53896782
  -Hartree energ DENC   =       -43.91947793
  -exchange      EXHF   =         0.00000000
  -V(xc)+E(xc)   XCENC  =       -16.34484621
  PAW double counting   =       274.56471105     -255.13504988
  entropy T*S    EENTRO =        -0.00392493
  eigenvalues    EBANDS =        26.21212099
  atomic energy  EATOM  =       276.88469247
  Solvation  Ediel_sol  =         0.00000000
  ---------------------------------------------------
  free energy    TOTEN  =        -7.18429181 eV

  energy without entropy =       -7.18036688  energy(sigma->0) =       -7.18232935


--------------------------------------------------------------------------------------------------------




--------------------------------------- Iteration      1(   6)  ---------------------------------------


    POTLOK:  cpu time      2.9350: real time      5.8781
    SETDIJ:  cpu time      0.1039: real time      0.2079
     EDDAV:  cpu time    237.5793: real time    475.1910
       DOS:  cpu time      0.7489: real time      1.5080
    CHARGE:  cpu time      0.6248: real time      1.2410
    MIXING:  cpu time      0.2819: real time      0.5660
    --------------------------------------------
      LOOP:  cpu time    242.2738: real time    484.5921

 eigenvalue-minimisations  : 16968
 total energy-change (2. order) :-0.7684835E+00  (-0.3695005E+00)
 number of electron       5.9999999 magnetization       0.8683082
 augmentation part        2.4907171 magnetization       0.3017023

 Broyden mixing:
  rms(total) = 0.41177E+00    rms(broyden)= 0.41176E+00
  rms(prec ) = 0.71687E+00
  weight for this iteration     100.00

 eigenvalues of (default mixing * dielectric matrix)
  average eigenvalue GAMMA=   1.3055
  1.3055

 Free energy of the ion-electron system (eV)
  ---------------------------------------------------
  alpha Z        PSCENC =        27.09645045
  Ewald energy   TEWEN  =      -296.53896782
  -Hartree energ DENC   =       -37.47242161
  -exchange      EXHF   =         0.00000000
  -V(xc)+E(xc)   XCENC  =       -19.10619346
  PAW double counting   =       311.17897336     -290.74726505
  entropy T*S    EENTRO =        -0.00197530
  eigenvalues    EBANDS =        20.75393160
  atomic energy  EATOM  =       276.88469247
  Solvation  Ediel_sol  =         0.00000000
  ---------------------------------------------------
  free energy    TOTEN  =        -7.95277536 eV

  energy without entropy =       -7.95080006  energy(sigma->0) =       -7.95178771


--------------------------------------------------------------------------------------------------------




--------------------------------------- Iteration      1(   7)  ---------------------------------------


    POTLOK:  cpu time      2.6087: real time      5.2150
    SETDIJ:  cpu time      0.1620: real time      0.3180
     EDDAV:  cpu time    242.1135: real time    484.2730
       DOS:  cpu time      0.7540: real time      1.5100
    CHARGE:  cpu time      0.6229: real time      1.2390
    MIXING:  cpu time      0.2850: real time      0.5580
    --------------------------------------------
      LOOP:  cpu time    246.5459: real time    493.1129

 eigenvalue-minimisations  : 16632
 total energy-change (2. order) :-0.2461509E+00  (-0.8983815E-01)
 number of electron       5.9999999 magnetization       0.6845769
 augmentation part        2.5782919 magnetization       0.4719836

 Broyden mixing:
  rms(total) = 0.24017E+00    rms(broyden)= 0.24016E+00
  rms(prec ) = 0.27843E+00
  weight for this iteration     100.00

 eigenvalues of (default mixing * dielectric matrix)
  average eigenvalue GAMMA=   1.1141
  1.6212  0.6070

 Free energy of the ion-electron system (eV)
  ---------------------------------------------------
  alpha Z        PSCENC =        27.09645045
  Ewald energy   TEWEN  =      -296.53896782
  -Hartree energ DENC   =       -34.81332728
  -exchange      EXHF   =         0.00000000
  -V(xc)+E(xc)   XCENC  =       -19.86740422
  PAW double counting   =       333.67260267     -313.19859326
  entropy T*S    EENTRO =        -0.00421485
  eigenvalues    EBANDS =        18.56983561
  atomic energy  EATOM  =       276.88469247
  Solvation  Ediel_sol  =         0.00000000
  ---------------------------------------------------
  free energy    TOTEN  =        -8.19892623 eV

  energy without entropy =       -8.19471138  energy(sigma->0) =       -8.19681880


--------------------------------------------------------------------------------------------------------




--------------------------------------- Iteration      1(   8)  ---------------------------------------


    POTLOK:  cpu time      2.1619: real time      4.3340
    SETDIJ:  cpu time      0.1309: real time      0.2599
     EDDAV:  cpu time    250.2289: real time    500.5000
       DOS:  cpu time      0.5930: real time      1.1830
    CHARGE:  cpu time      0.5350: real time      1.0720
    MIXING:  cpu time      0.2490: real time      0.4981
    --------------------------------------------
      LOOP:  cpu time    253.8988: real time    507.8472

 eigenvalue-minimisations  : 17304
 total energy-change (2. order) :-0.2994411E-01  (-0.5554488E-02)
 number of electron       5.9999999 magnetization       0.0518070
 augmentation part        2.5430716 magnetization      -0.0636563

 Broyden mixing:
  rms(total) = 0.19217E+00    rms(broyden)= 0.19217E+00
  rms(prec ) = 0.25822E+00
  weight for this iteration     100.00

 eigenvalues of (default mixing * dielectric matrix)
  average eigenvalue GAMMA=   1.5079
  2.8223  1.0912  0.6101

 Free energy of the ion-electron system (eV)
  ---------------------------------------------------
  alpha Z        PSCENC =        27.09645045
  Ewald energy   TEWEN  =      -296.53896782
  -Hartree energ DENC   =       -34.81398076
  -exchange      EXHF   =         0.00000000
  -V(xc)+E(xc)   XCENC  =       -19.95243985
  PAW double counting   =       338.74119135     -318.46487439
  entropy T*S    EENTRO =        -0.00334129
  eigenvalues    EBANDS =        18.82239949
  atomic energy  EATOM  =       276.88469247
  Solvation  Ediel_sol  =         0.00000000
  ---------------------------------------------------
  free energy    TOTEN  =        -8.22887034 eV

  energy without entropy =       -8.22552905  energy(sigma->0) =       -8.22719970


--------------------------------------------------------------------------------------------------------




--------------------------------------- Iteration      1(   9)  ---------------------------------------


    POTLOK:  cpu time      2.3639: real time      4.7200
    SETDIJ:  cpu time      0.1449: real time      0.3009
     EDDAV:  cpu time    236.9212: real time    473.8790
       DOS:  cpu time      0.6470: real time      1.2940
    CHARGE:  cpu time      0.4800: real time      0.9620
    MIXING:  cpu time      0.2558: real time      0.5079
    --------------------------------------------
      LOOP:  cpu time    240.8126: real time    481.6638

 eigenvalue-minimisations  : 16632
 total energy-change (2. order) :-0.2368761E-01  (-0.8177454E-02)
 number of electron       5.9999999 magnetization       0.1308714
 augmentation part        2.5555155 magnetization       0.1004952

 Broyden mixing:
  rms(total) = 0.64976E-01    rms(broyden)= 0.64973E-01
  rms(prec ) = 0.98775E-01
  weight for this iteration     100.00

 eigenvalues of (default mixing * dielectric matrix)
  average eigenvalue GAMMA=   1.2705
  2.2502  1.5163  0.6577  0.6577

 Free energy of the ion-electron system (eV)
  ---------------------------------------------------
  alpha Z        PSCENC =        27.09645045
  Ewald energy   TEWEN  =      -296.53896782
  -Hartree energ DENC   =       -34.26302244
  -exchange      EXHF   =         0.00000000
  -V(xc)+E(xc)   XCENC  =       -20.04056071
  PAW double counting   =       346.23562329     -326.15506729
  entropy T*S    EENTRO =        -0.00377425
  eigenvalues    EBANDS =        18.53206834
  atomic energy  EATOM  =       276.88469247
  Solvation  Ediel_sol  =         0.00000000
  ---------------------------------------------------
  free energy    TOTEN  =        -8.25255795 eV

  energy without entropy =       -8.24878370  energy(sigma->0) =       -8.25067083


--------------------------------------------------------------------------------------------------------




--------------------------------------- Iteration      1(  10)  ---------------------------------------


    POTLOK:  cpu time      2.2898: real time      4.5771
    SETDIJ:  cpu time      0.1130: real time      0.2170
     EDDAV:  cpu time    257.6603: real time    515.3840
       DOS:  cpu time      0.6730: real time      1.3361
    CHARGE:  cpu time      0.4430: real time      0.8930
    MIXING:  cpu time      0.3049: real time      0.6110
    --------------------------------------------
      LOOP:  cpu time    261.4840: real time    523.0180

 eigenvalue-minimisations  : 18144
 total energy-change (2. order) :-0.2079162E-02  (-0.4875823E-03)
 number of electron       5.9999999 magnetization       0.0886335
 augmentation part        2.5500279 magnetization       0.0433346

 Broyden mixing:
  rms(total) = 0.31598E-01    rms(broyden)= 0.31598E-01
  rms(prec ) = 0.52259E-01
  weight for this iteration     100.00

 eigenvalues of (default mixing * dielectric matrix)
  average eigenvalue GAMMA=   1.2540
  2.3718  1.5865  0.6031  0.8543  0.8543

 Free energy of the ion-electron system (eV)
  ---------------------------------------------------
  alpha Z        PSCENC =        27.09645045
  Ewald energy   TEWEN  =      -296.53896782
  -Hartree energ DENC   =       -34.32648125
  -exchange      EXHF   =         0.00000000
  -V(xc)+E(xc)   XCENC  =       -20.02981223
  PAW double counting   =       345.95717596     -325.92897943
  entropy T*S    EENTRO =        -0.00313782
  eigenvalues    EBANDS =        18.63442255
  atomic energy  EATOM  =       276.88469247
  Solvation  Ediel_sol  =         0.00000000
  ---------------------------------------------------
  free energy    TOTEN  =        -8.25463711 eV

  energy without entropy =       -8.25149930  energy(sigma->0) =       -8.25306820


--------------------------------------------------------------------------------------------------------




--------------------------------------- Iteration      1(  11)  ---------------------------------------


    POTLOK:  cpu time      2.3398: real time      4.6770
    SETDIJ:  cpu time      0.1030: real time      0.2070
     EDDAV:  cpu time    242.3995: real time    484.8260
       DOS:  cpu time      0.6280: real time      1.2600
    CHARGE:  cpu time      0.4831: real time      0.9740
    MIXING:  cpu time      0.2979: real time      0.5919
    --------------------------------------------
      LOOP:  cpu time    246.2513: real time    492.5360

 eigenvalue-minimisations  : 17472
 total energy-change (2. order) :-0.4453555E-03  (-0.3417886E-03)
 number of electron       5.9999999 magnetization       0.1840811
 augmentation part        2.5585879 magnetization       0.1432029

 Broyden mixing:
  rms(total) = 0.27510E-01    rms(broyden)= 0.27510E-01
  rms(prec ) = 0.35319E-01
  weight for this iteration     100.00

 eigenvalues of (default mixing * dielectric matrix)
  average eigenvalue GAMMA=   1.3046
  2.2431  2.2431  1.0294  1.0294  0.6412  0.6412

 Free energy of the ion-electron system (eV)
  ---------------------------------------------------
  alpha Z        PSCENC =        27.09645045
  Ewald energy   TEWEN  =      -296.53896782
  -Hartree energ DENC   =       -34.18560104
  -exchange      EXHF   =         0.00000000
  -V(xc)+E(xc)   XCENC  =       -20.02571341
  PAW double counting   =       346.28036010     -326.25601895
  entropy T*S    EENTRO =        -0.00318247
  eigenvalues    EBANDS =        18.49289821
  atomic energy  EATOM  =       276.88469247
  Solvation  Ediel_sol  =         0.00000000
  ---------------------------------------------------
  free energy    TOTEN  =        -8.25508247 eV

  energy without entropy =       -8.25190000  energy(sigma->0) =       -8.25349124


--------------------------------------------------------------------------------------------------------




--------------------------------------- Iteration      1(  12)  ---------------------------------------


    POTLOK:  cpu time      2.4859: real time      4.9681
    SETDIJ:  cpu time      0.0779: real time      0.1559
     EDDAV:  cpu time    255.0058: real time    510.0572
       DOS:  cpu time      0.8936: real time      1.7888
    CHARGE:  cpu time      0.4580: real time      0.9081
    MIXING:  cpu time      0.4219: real time      0.8409
    --------------------------------------------
      LOOP:  cpu time    259.3432: real time    518.7190

 eigenvalue-minimisations  : 17976
 total energy-change (2. order) :-0.9029592E-03  (-0.1949548E-03)
 number of electron       5.9999999 magnetization       0.1939132
 augmentation part        2.5536095 magnetization       0.1297732

 Broyden mixing:
  rms(total) = 0.14437E-01    rms(broyden)= 0.14437E-01
  rms(prec ) = 0.17428E-01
  weight for this iteration     100.00

 eigenvalues of (default mixing * dielectric matrix)
  average eigenvalue GAMMA=   1.1666
  2.2380  2.2380  1.0731  1.0731  0.6324  0.6324  0.2795

 Free energy of the ion-electron system (eV)
  ---------------------------------------------------
  alpha Z        PSCENC =        27.09645045
  Ewald energy   TEWEN  =      -296.53896782
  -Hartree energ DENC   =       -34.28350550
  -exchange      EXHF   =         0.00000000
  -V(xc)+E(xc)   XCENC  =       -20.01912117
  PAW double counting   =       345.13584260     -325.10290040
  entropy T*S    EENTRO =        -0.00237725
  eigenvalues    EBANDS =        18.57390119
  atomic energy  EATOM  =       276.88469247
  Solvation  Ediel_sol  =         0.00000000
  ---------------------------------------------------
  free energy    TOTEN  =        -8.25598543 eV

  energy without entropy =       -8.25360818  energy(sigma->0) =       -8.25479680


--------------------------------------------------------------------------------------------------------




--------------------------------------- Iteration      1(  13)  ---------------------------------------


    POTLOK:  cpu time      1.7179: real time      3.4511
    SETDIJ:  cpu time      0.1039: real time      0.2069
     EDDAV:  cpu time    231.8242: real time    463.6700
       DOS:  cpu time      0.6151: real time      1.2510
    CHARGE:  cpu time      0.5939: real time      1.1780
    MIXING:  cpu time      0.3579: real time      0.7080
    --------------------------------------------
      LOOP:  cpu time    235.2129: real time    470.4650

 eigenvalue-minimisations  : 16968
 total energy-change (2. order) :-0.3830826E-03  (-0.2016513E-04)
 number of electron       5.9999999 magnetization       0.2703232
 augmentation part        2.5541056 magnetization       0.2029255

 Broyden mixing:
  rms(total) = 0.13888E-01    rms(broyden)= 0.13888E-01
  rms(prec ) = 0.15988E-01
  weight for this iteration     100.00

 eigenvalues of (default mixing * dielectric matrix)
  average eigenvalue GAMMA=   1.5298
  3.4588  3.4588  1.2470  1.2470  0.7753  0.7753  0.6381  0.6381

 Free energy of the ion-electron system (eV)
  ---------------------------------------------------
  alpha Z        PSCENC =        27.09645045
  Ewald energy   TEWEN  =      -296.53896782
  -Hartree energ DENC   =       -34.27826758
  -exchange      EXHF   =         0.00000000
  -V(xc)+E(xc)   XCENC  =       -20.01801696
  PAW double counting   =       345.09173301     -325.05650557
  entropy T*S    EENTRO =        -0.00214544
  eigenvalues    EBANDS =        18.56465893
  atomic energy  EATOM  =       276.88469247
  Solvation  Ediel_sol  =         0.00000000
  ---------------------------------------------------
  free energy    TOTEN  =        -8.25636851 eV

  energy without entropy =       -8.25422307  energy(sigma->0) =       -8.25529579


--------------------------------------------------------------------------------------------------------




--------------------------------------- Iteration      1(  14)  ---------------------------------------


    POTLOK:  cpu time      2.3350: real time      4.6883
    SETDIJ:  cpu time      0.1647: real time      0.3207
     EDDAV:  cpu time    247.6301: real time    495.3010
       DOS:  cpu time      0.5030: real time      1.0120
    CHARGE:  cpu time      0.3290: real time      0.6530
    MIXING:  cpu time      0.4350: real time      0.8810
    --------------------------------------------
      LOOP:  cpu time    251.3968: real time    502.8560

 eigenvalue-minimisations  : 17808
 total energy-change (2. order) :-0.3527974E-03  (-0.2408842E-03)
 number of electron       5.9999999 magnetization       0.2329613
 augmentation part        2.5549191 magnetization       0.1544126

 Broyden mixing:
  rms(total) = 0.63442E-02    rms(broyden)= 0.63435E-02
  rms(prec ) = 0.11203E-01
  weight for this iteration     100.00

 eigenvalues of (default mixing * dielectric matrix)
  average eigenvalue GAMMA=   1.2645
  2.6755  2.6755  1.3811  1.1019  0.7501  0.7501  0.7744  0.6360  0.6360

 Free energy of the ion-electron system (eV)
  ---------------------------------------------------
  alpha Z        PSCENC =        27.09645045
  Ewald energy   TEWEN  =      -296.53896782
  -Hartree energ DENC   =       -34.28521018
  -exchange      EXHF   =         0.00000000
  -V(xc)+E(xc)   XCENC  =       -20.00858653
  PAW double counting   =       344.78417643     -324.74604401
  entropy T*S    EENTRO =        -0.00265050
  eigenvalues    EBANDS =        18.55941839
  atomic energy  EATOM  =       276.88469247
  Solvation  Ediel_sol  =         0.00000000
  ---------------------------------------------------
  free energy    TOTEN  =        -8.25672131 eV

  energy without entropy =       -8.25407080  energy(sigma->0) =       -8.25539606


--------------------------------------------------------------------------------------------------------




--------------------------------------- Iteration      1(  15)  ---------------------------------------


    POTLOK:  cpu time      1.6739: real time      3.3420
    SETDIJ:  cpu time      0.0900: real time      0.1800
     EDDAV:  cpu time    245.0187: real time    490.0720
       DOS:  cpu time      0.6870: real time      1.3740
    CHARGE:  cpu time      0.4450: real time      0.8790
    MIXING:  cpu time      0.2529: real time      0.5239
    --------------------------------------------
      LOOP:  cpu time    248.1674: real time    496.3710

 eigenvalue-minimisations  : 17472
 total energy-change (2. order) :-0.6758200E-04  (-0.4274418E-04)
 number of electron       5.9999999 magnetization       0.2330897
 augmentation part        2.5550082 magnetization       0.1620310

 Broyden mixing:
  rms(total) = 0.34760E-02    rms(broyden)= 0.34758E-02
  rms(prec ) = 0.43471E-02
  weight for this iteration     100.00

 eigenvalues of (default mixing * dielectric matrix)
  average eigenvalue GAMMA=   1.2089
  2.9397  1.9981  1.6867  1.1416  1.1416  0.6686  0.6686  0.6677  0.5882  0.5882

 Free energy of the ion-electron system (eV)
  ---------------------------------------------------
  alpha Z        PSCENC =        27.09645045
  Ewald energy   TEWEN  =      -296.53896782
  -Hartree energ DENC   =       -34.27191478
  -exchange      EXHF   =         0.00000000
  -V(xc)+E(xc)   XCENC  =       -20.01317816
  PAW double counting   =       345.01870105     -324.98261353
  entropy T*S    EENTRO =        -0.00232719
  eigenvalues    EBANDS =        18.55236861
  atomic energy  EATOM  =       276.88469247
  Solvation  Ediel_sol  =         0.00000000
  ---------------------------------------------------
  free energy    TOTEN  =        -8.25678889 eV

  energy without entropy =       -8.25446170  energy(sigma->0) =       -8.25562530


--------------------------------------------------------------------------------------------------------




--------------------------------------- Iteration      1(  16)  ---------------------------------------


    POTLOK:  cpu time      1.7100: real time      3.4191
    SETDIJ:  cpu time      0.1040: real time      0.2080
     EDDAV:  cpu time    238.3296: real time    476.6910
       DOS:  cpu time      0.6110: real time      1.2260
    CHARGE:  cpu time      0.4250: real time      0.8560
    MIXING:  cpu time      0.3630: real time      0.7270
    --------------------------------------------
      LOOP:  cpu time    241.5425: real time    483.1270

 eigenvalue-minimisations  : 16800
 total energy-change (2. order) :-0.3211316E-04  (-0.1876470E-05)
 number of electron       5.9999999 magnetization       0.2369518
 augmentation part        2.5550782 magnetization       0.1661368

 Broyden mixing:
  rms(total) = 0.19244E-02    rms(broyden)= 0.19244E-02
  rms(prec ) = 0.25266E-02
  weight for this iteration     100.00

 eigenvalues of (default mixing * dielectric matrix)
  average eigenvalue GAMMA=   1.1699
  2.6386  2.4886  1.4579  1.1782  1.1782  0.6362  0.6362  0.7864  0.6505  0.6090
  0.6090

 Free energy of the ion-electron system (eV)
  ---------------------------------------------------
  alpha Z        PSCENC =        27.09645045
  Ewald energy   TEWEN  =      -296.53896782
  -Hartree energ DENC   =       -34.26835096
  -exchange      EXHF   =         0.00000000
  -V(xc)+E(xc)   XCENC  =       -20.01249883
  PAW double counting   =       345.12691658     -325.09475204
  entropy T*S    EENTRO =        -0.00232057
  eigenvalues    EBANDS =        18.55200972
  atomic energy  EATOM  =       276.88469247
  Solvation  Ediel_sol  =         0.00000000
  ---------------------------------------------------
  free energy    TOTEN  =        -8.25682100 eV

  energy without entropy =       -8.25450043  energy(sigma->0) =       -8.25566072


--------------------------------------------------------------------------------------------------------




--------------------------------------- Iteration      1(  17)  ---------------------------------------


    POTLOK:  cpu time      2.0528: real time      4.0980
    SETDIJ:  cpu time      0.1080: real time      0.2120
     EDDAV:  cpu time    243.6696: real time    487.3800
       DOS:  cpu time      0.5720: real time      1.1560
    CHARGE:  cpu time      0.5460: real time      1.0910
    MIXING:  cpu time      0.3979: real time      0.7869
    --------------------------------------------
      LOOP:  cpu time    247.3464: real time    494.7240

 eigenvalue-minimisations  : 17472
 total energy-change (2. order) :-0.2598634E-05  (-0.4052804E-06)
 number of electron       5.9999999 magnetization       0.2359866
 augmentation part        2.5550649 magnetization       0.1647813

 Broyden mixing:
  rms(total) = 0.81310E-03    rms(broyden)= 0.81310E-03
  rms(prec ) = 0.12141E-02
  weight for this iteration     100.00

 eigenvalues of (default mixing * dielectric matrix)
  average eigenvalue GAMMA=   1.1885
  2.9263  1.8022  1.8022  1.4010  1.4010  0.9813  0.6624  0.6624  0.8363  0.6245
  0.6245  0.5380

 Free energy of the ion-electron system (eV)
  ---------------------------------------------------
  alpha Z        PSCENC =        27.09645045
  Ewald energy   TEWEN  =      -296.53896782
  -Hartree energ DENC   =       -34.26917735
  -exchange      EXHF   =         0.00000000
  -V(xc)+E(xc)   XCENC  =       -20.01210415
  PAW double counting   =       345.12839005     -325.09617236
  entropy T*S    EENTRO =        -0.00235186
  eigenvalues    EBANDS =        18.55241697
  atomic energy  EATOM  =       276.88469247
  Solvation  Ediel_sol  =         0.00000000
  ---------------------------------------------------
  free energy    TOTEN  =        -8.25682360 eV

  energy without entropy =       -8.25447174  energy(sigma->0) =       -8.25564767


--------------------------------------------------------------------------------------------------------




--------------------------------------- Iteration      1(  18)  ---------------------------------------


    POTLOK:  cpu time      1.9270: real time      3.8601
    SETDIJ:  cpu time      0.1069: real time      0.2109
     EDDAV:  cpu time    198.8986: real time    397.8350
       DOS:  cpu time      0.5460: real time      1.0810
    --------------------------------------------
      LOOP:  cpu time    201.4785: real time    402.9870

 eigenvalue-minimisations  : 13272
 total energy-change (2. order) :-0.6075669E-07  (-0.1004249E-06)
 number of electron       5.9999999 magnetization       0.2359866
 augmentation part        2.5550649 magnetization       0.1647813

 Free energy of the ion-electron system (eV)
  ---------------------------------------------------
  alpha Z        PSCENC =        27.09645045
  Ewald energy   TEWEN  =      -296.53896782
  -Hartree energ DENC   =       -34.26951661
  -exchange      EXHF   =         0.00000000
  -V(xc)+E(xc)   XCENC  =       -20.01220463
  PAW double counting   =       345.14057218     -325.10866525
  entropy T*S    EENTRO =        -0.00234089
  eigenvalues    EBANDS =        18.55315644
  atomic energy  EATOM  =       276.88469247
  Solvation  Ediel_sol  =         0.00000000
  ---------------------------------------------------
  free energy    TOTEN  =        -8.25682366 eV

  energy without entropy =       -8.25448277  energy(sigma->0) =       -8.25565322


--------------------------------------------------------------------------------------------------------




 average (electrostatic) potential at core
  the test charge radii are     1.1394
  (the norm of the test charge is              1.0000)
       1 -43.9946
 
 
 
 E-fermi :   5.0183     XC(G=0): -11.6264     alpha+bet :-12.4188

 val. band max:        4.9050330031   @ k =  -0.4167  -0.4167   0.1250
 cond. band min:       5.0283278587   @ k =  -0.4167  -0.2500   0.1250
 fundamental gap:      0.1232948556
 Fermi energy:         5.0182848861

 spin component 1

 k-point     1 :       0.0833    0.0833    0.1250
  band No.  band energies     occupation 
      1      -0.9130      1.00000
      2       2.6348      1.00000
      3       2.7614      1.00000
      4       6.3060      0.00000
      5       6.3258      0.00000
      6       6.5313      0.00000
      7      19.6785      0.00000
      8      21.2587      0.00000
      9      21.6645      0.00000
     10      28.5820      0.00000
     11      29.5785      0.00000
     12      33.2011      0.00000
     13      36.4065      0.00000
     14      37.2239      0.00000
     15      40.6992      0.00000
     16      43.1287      0.00000
     17      46.2519      0.00000
     18      47.8217      0.00000
     19      48.3047      0.00000
     20      49.3047      0.00000
     21      51.2488      0.00000
     22      52.3104      0.00000
     23      52.6289      0.00000
     24      54.2665      0.00000
     25      58.0497      0.00000
     26      59.0018      0.00000
     27      59.5192      0.00000
     28      59.6706      0.00000
     29      65.6800      0.00000
     30      69.3888      0.00000
     31      69.8620      0.00000
     32      71.4181      0.00000
     33      75.0179      0.00000
     34      76.7989      0.00000
     35      78.7514      0.00000
     36      88.3598      0.00000
     37      89.8849      0.00000
     38      91.9697      0.00000
     39      96.3030      0.00000
     40      97.7234      0.00000
     41      98.0555      0.00000
     42     100.5163      0.00000

 k-point     2 :       0.2500    0.0833    0.1250
  band No.  band energies     occupation 
      1       0.3900      1.00000
      2       2.9680      1.00000
      3       3.4909      1.00000
      4       5.6625      0.00000
      5       5.9069      0.00000
      6       6.3991      0.00000
      7      15.7499      0.00000
      8      21.1832      0.00000
      9      22.9514      0.00000
     10      29.0628      0.00000
     11      31.5892      0.00000
     12      33.2345      0.00000
     13      34.3056      0.00000
     14      38.7206      0.00000
     15      39.5662      0.00000
     16      40.8293      0.00000
     17      44.8066      0.00000
     18      47.2425      0.00000
     19      50.3134      0.00000
     20      50.6795      0.00000
     21      51.8327      0.00000
     22      52.1603      0.00000
     23      55.2860      0.00000
     24      55.6711      0.00000
     25      56.9042      0.00000
     26      58.6219      0.00000
     27      61.7093      0.00000
     28      62.4934      0.00000
     29      64.9200      0.00000
     30      68.2507      0.00000
     31      69.9195      0.00000
     32      73.7330      0.00000
     33      76.3092      0.00000
     34      79.5595      0.00000
     35      82.6993      0.00000
     36      84.5793      0.00000
     37      87.6769      0.00000
     38      90.1247      0.00000
     39      90.8374      0.00000
     40      93.3298      0.00000
     41      96.1389      0.00000
     42      97.6275      0.00000

 k-point     3 :       0.4167    0.0833    0.1250
  band No.  band energies     occupation 
      1       2.1717      1.00000
      2       3.2481      1.00000
      3       3.6208      1.00000
      4       5.0723      0.06329
      5       6.3867      0.00000
      6       6.4864      0.00000
      7      11.5104      0.00000
      8      23.1850      0.00000
      9      24.9869      0.00000
     10      27.4078      0.00000
     11      29.1866      0.00000
     12      32.7816      0.00000
     13      34.4250      0.00000
     14      36.3156      0.00000
     15      40.3839      0.00000
     16      42.3499      0.00000
     17      46.6907      0.00000
     18      48.3903      0.00000
     19      49.4725      0.00000
     20      50.3706      0.00000
     21      52.5695      0.00000
     22      53.5016      0.00000
     23      54.3469      0.00000
     24      56.9800      0.00000
     25      58.5367      0.00000
     26      59.4845      0.00000
     27      61.9430      0.00000
     28      62.5995      0.00000
     29      64.4875      0.00000
     30      71.0663      0.00000
     31      73.2982      0.00000
     32      74.1233      0.00000
     33      75.8271      0.00000
     34      78.6408      0.00000
     35      82.9675      0.00000
     36      83.6796      0.00000
     37      86.2280      0.00000
     38      87.5547      0.00000
     39      89.9970      0.00000
     40      90.6295      0.00000
     41      93.2281      0.00000
     42      94.9531      0.00000

 k-point     4 :      -0.4167    0.0833    0.1250
  band No.  band energies     occupation 
      1       2.1717      1.00000
      2       3.2481      1.00000
      3       3.6208      1.00000
      4       5.0723      0.06329
      5       6.3867      0.00000
      6       6.4864      0.00000
      7      11.5104      0.00000
      8      23.1850      0.00000
      9      24.9869      0.00000
     10      27.4078      0.00000
     11      29.1866      0.00000
     12      32.7816      0.00000
     13      34.4250      0.00000
     14      36.3156      0.00000
     15      40.3839      0.00000
     16      42.3499      0.00000
     17      46.6907      0.00000
     18      48.3903      0.00000
[...]
     18      47.1897      0.00000
     19      48.6420      0.00000
     20      50.8452      0.00000
     21      52.4057      0.00000
     22      53.8940      0.00000
     23      55.9105      0.00000
     24      56.9730      0.00000
     25      59.5159      0.00000
     26      60.7765      0.00000
     27      64.0464      0.00000
     28      65.2587      0.00000
     29      67.1552      0.00000
     30      70.9181      0.00000
     31      72.9824      0.00000
     32      74.0847      0.00000
     33      74.5678      0.00000
     34      77.9388      0.00000
     35      79.1847      0.00000
     36      82.8189      0.00000
     37      85.0705      0.00000
     38      87.2857      0.00000
     39      90.0810      0.00000
     40      91.5213      0.00000
     41      92.5520      0.00000
     42      93.5836      0.00000

 k-point    69 :       0.4167   -0.0833    0.3750
  band No.  band energies     occupation 
      1       1.9302      1.00000
      2       3.6345      1.00000
      3       5.4199      0.00000
      4       5.5707      0.00000
      5       6.6707      0.00000
      6       8.6419      0.00000
      7      12.1021      0.00000
      8      17.1349      0.00000
      9      20.4062      0.00000
     10      27.4599      0.00000
     11      31.0044      0.00000
     12      32.7810      0.00000
     13      35.1165      0.00000
     14      38.6120      0.00000
     15      40.5629      0.00000
     16      43.0844      0.00000
     17      46.1967      0.00000
     18      49.2829      0.00000
     19      50.8981      0.00000
     20      51.6466      0.00000
     21      52.2539      0.00000
     22      54.8858      0.00000
     23      55.7227      0.00000
     24      57.4587      0.00000
     25      60.3701      0.00000
     26      63.0219      0.00000
     27      65.0170      0.00000
     28      66.4199      0.00000
     29      68.4472      0.00000
     30      69.5486      0.00000
     31      71.5053      0.00000
     32      74.9578      0.00000
     33      76.2614      0.00000
     34      77.3703      0.00000
     35      78.6334      0.00000
     36      81.3488      0.00000
     37      84.3998      0.00000
     38      84.9482      0.00000
     39      86.9993      0.00000
     40      88.2766      0.00000
     41      89.2438      0.00000
     42      91.6363      0.00000

 k-point    70 :      -0.4167   -0.0833    0.3750
  band No.  band energies     occupation 
      1       1.9302      1.00000
      2       3.6345      1.00000
      3       5.4199      0.00000
      4       5.5707      0.00000
      5       6.6707      0.00000
      6       8.6419      0.00000
      7      12.1021      0.00000
      8      17.1349      0.00000
      9      20.4062      0.00000
     10      27.4599      0.00000
     11      31.0044      0.00000
     12      32.7810      0.00000
     13      35.1165      0.00000
     14      38.6120      0.00000
     15      40.5629      0.00000
     16      43.0844      0.00000
     17      46.1967      0.00000
     18      49.2829      0.00000
     19      50.8981      0.00000
     20      51.6466      0.00000
     21      52.2539      0.00000
     22      54.8858      0.00000
     23      55.7227      0.00000
     24      57.4587      0.00000
     25      60.3701      0.00000
     26      63.0219      0.00000
     27      65.0170      0.00000
     28      66.4199      0.00000
     29      68.4472      0.00000
     30      69.5486      0.00000
     31      71.5053      0.00000
     32      74.9578      0.00000
     33      76.2614      0.00000
     34      77.3703      0.00000
     35      78.6334      0.00000
     36      81.3488      0.00000
     37      84.3998      0.00000
     38      84.9482      0.00000
     39      86.9993      0.00000
     40      88.2766      0.00000
     41      89.2438      0.00000
     42      91.6363      0.00000

 k-point    71 :      -0.2500   -0.0833    0.3750
  band No.  band energies     occupation 
      1       2.1818      1.00000
      2       3.4004      1.00000
      3       4.6885      1.00000
      4       5.4326      0.00000
      5       6.2100      0.00000
      6       6.9463      0.00000
      7      13.0108      0.00000
      8      19.0647      0.00000
      9      24.7141      0.00000
     10      25.5016      0.00000
     11      30.9099      0.00000
     12      32.9024      0.00000
     13      35.9909      0.00000
     14      38.7328      0.00000
     15      39.6409      0.00000
     16      43.8917      0.00000
     17      45.5921      0.00000
     18      47.1897      0.00000
     19      48.6420      0.00000
     20      50.8452      0.00000
     21      52.4057      0.00000
     22      53.8940      0.00000
     23      55.9105      0.00000
     24      56.9730      0.00000
     25      59.5159      0.00000
     26      60.7765      0.00000
     27      64.0464      0.00000
     28      65.2587      0.00000
     29      67.1552      0.00000
     30      70.9181      0.00000
     31      72.9824      0.00000
     32      74.0847      0.00000
     33      74.5678      0.00000
     34      77.9388      0.00000
     35      79.1847      0.00000
     36      82.8189      0.00000
     37      85.0705      0.00000
     38      87.2857      0.00000
     39      90.0810      0.00000
     40      91.5213      0.00000
     41      92.5520      0.00000
     42      93.5836      0.00000

 k-point    72 :      -0.0833   -0.0833    0.3750
  band No.  band energies     occupation 
      1       1.6864      1.00000
      2       3.2532      1.00000
      3       3.9301      1.00000
      4       5.5011      0.00000
      5       6.1172      0.00000
      6       6.8312      0.00000
      7      12.3290      0.00000
      8      23.7931      0.00000
      9      24.7228      0.00000
     10      28.3143      0.00000
     11      30.0494      0.00000
     12      32.5608      0.00000
     13      33.4426      0.00000
     14      36.5622      0.00000
     15      40.3293      0.00000
     16      43.0461      0.00000
     17      45.2792      0.00000
     18      49.1982      0.00000
     19      49.6526      0.00000
     20      50.1840      0.00000
     21      52.5679      0.00000
     22      52.8092      0.00000
     23      55.3080      0.00000
     24      57.3656      0.00000
     25      57.9684      0.00000
     26      59.9252      0.00000
     27      62.1429      0.00000
     28      62.6643      0.00000
     29      62.7697      0.00000
     30      69.7822      0.00000
     31      71.7026      0.00000
     32      74.0042      0.00000
     33      78.2588      0.00000
     34      79.4669      0.00000
     35      84.5979      0.00000
     36      84.8422      0.00000
     37      85.2013      0.00000
     38      87.3341      0.00000
     39      88.3633      0.00000
     40      93.6353      0.00000
     41      94.3200      0.00000
     42      96.2972      0.00000


--------------------------------------------------------------------------------------------------------


 soft charge-density along one line, spin component           1
         0         1         2         3         4         5         6         7         8         9
 total charge-density along one line
 
 soft charge-density along one line, spin component           2
         0         1         2         3         4         5         6         7         8         9
 total charge-density along one line
 
 pseudopotential strength for first ion, spin component:           1
 -3.884  -0.000   0.000  -0.000  -0.000  -4.374  -0.000   0.000
 -0.000  -3.916  -0.000   0.000  -0.000  -0.000  -4.405  -0.000
  0.000  -0.000  -3.840  -0.000  -0.000   0.000  -0.000  -4.331
 -0.000   0.000  -0.000  -3.916   0.000  -0.000   0.000  -0.000
 -0.000  -0.000  -0.000   0.000  -3.849  -0.000  -0.000  -0.000
 -4.374  -0.000   0.000  -0.000  -0.000  -4.823  -0.000   0.000
 -0.000  -4.405  -0.000   0.000  -0.000  -0.000  -4.853  -0.000
  0.000  -0.000  -4.331  -0.000  -0.000   0.000  -0.000  -4.781
 -0.000   0.000  -0.000  -4.405   0.000  -0.000   0.000  -0.000
 -0.000  -0.000  -0.000   0.000  -4.339  -0.000  -0.000  -0.000
  0.000  -0.000   0.002  -0.000  -0.000   0.000  -0.000   0.002
  0.000  -0.000   0.004  -0.000  -0.000   0.000  -0.000   0.004
  0.000  -0.000  -0.000   0.000  -0.000   0.000  -0.000  -0.000
  0.000   0.000  -0.000   0.000   0.000   0.000   0.000  -0.000
  0.000   0.000  -0.000   0.000   0.000   0.000   0.000  -0.000
  0.000  -0.000  -0.000   0.000  -0.000   0.000  -0.000  -0.000
  0.000   0.000  -0.000   0.000   0.000   0.000   0.000  -0.000
  0.000   0.000  -0.000   0.000   0.000   0.000   0.000  -0.000
 pseudopotential strength for first ion, spin component:           2
 -3.777  -0.000   0.000  -0.000   0.000  -4.270  -0.000   0.000
 -0.000  -3.737   0.000  -0.000   0.000  -0.000  -4.231   0.000
  0.000   0.000  -3.757   0.000   0.000   0.000   0.000  -4.251
 -0.000  -0.000   0.000  -3.737  -0.000  -0.000  -0.000   0.000
  0.000   0.000   0.000  -0.000  -3.724   0.000   0.000   0.000
 -4.270  -0.000   0.000  -0.000   0.000  -4.722  -0.000   0.000
 -0.000  -4.231   0.000  -0.000   0.000  -0.000  -4.685   0.000
  0.000   0.000  -4.251   0.000   0.000   0.000   0.000  -4.704
 -0.000  -0.000   0.000  -4.231  -0.000  -0.000  -0.000   0.000
  0.000   0.000   0.000  -0.000  -4.219   0.000   0.000   0.000
 -0.000   0.000  -0.001   0.000   0.000   0.000   0.000  -0.001
 -0.000   0.000  -0.003   0.000   0.000  -0.000   0.000  -0.003
  0.000   0.000   0.000  -0.000   0.000   0.000   0.000   0.000
 -0.000  -0.000   0.000   0.000  -0.000  -0.000  -0.000   0.000
 -0.000  -0.000  -0.000  -0.000   0.000  -0.000  -0.000  -0.000
  0.000   0.000   0.000  -0.000   0.000   0.000   0.000   0.000
 -0.000  -0.000  -0.000   0.000  -0.000  -0.000  -0.000  -0.000
 -0.000  -0.000  -0.000  -0.000   0.000  -0.000  -0.000  -0.000
 total augmentation occupancy for first ion, spin component:           1
  0.348   0.000  -0.000   0.000   0.000  -0.251  -0.000  -0.000  -0.000  -0.000  -0.000   0.000  -0.000   0.000   0.000   0.000
  0.000   0.548  -0.000  -0.000   0.000  -0.000  -0.338  -0.000  -0.000  -0.000   0.000  -0.000   0.000  -0.000  -0.000   0.000
 -0.000  -0.000   0.358  -0.000  -0.000  -0.000  -0.000   0.046   0.000   0.000  -0.058  -0.003  -0.000   0.000  -0.000   0.000
  0.000  -0.000  -0.000   0.548  -0.000  -0.000   0.000   0.000  -0.338   0.000  -0.000   0.000   0.000  -0.000  -0.000  -0.000
  0.000   0.000  -0.000  -0.000   0.630   0.000  -0.000   0.000   0.000  -0.075   0.000  -0.000  -0.000   0.000   0.000   0.000
 -0.251  -0.000  -0.000  -0.000   0.000   0.832  -0.000   0.000  -0.000  -0.000   0.000   0.000   0.000  -0.000  -0.000  -0.000
 -0.000  -0.338  -0.000   0.000  -0.000  -0.000   0.872  -0.000   0.000   0.000  -0.000   0.000  -0.000   0.000   0.000  -0.000
 -0.000  -0.000   0.046   0.000   0.000   0.000  -0.000   0.806  -0.000   0.000   0.047   0.003   0.000  -0.000  -0.000   0.000
 -0.000  -0.000   0.000  -0.338   0.000  -0.000   0.000  -0.000   0.872   0.000  -0.000  -0.000   0.000   0.000  -0.000  -0.000
 -0.000  -0.000   0.000   0.000  -0.075  -0.000   0.000   0.000   0.000   0.829  -0.000   0.000   0.000  -0.000   0.000  -0.000
 -0.000   0.000  -0.058  -0.000   0.000   0.000  -0.000   0.047  -0.000  -0.000   2.017  -0.107  -0.000   0.000  -0.000   0.000
  0.000  -0.000  -0.003   0.000  -0.000   0.000   0.000   0.003  -0.000   0.000  -0.107   0.009   0.000  -0.000   0.000  -0.000
 -0.000   0.000  -0.000   0.000  -0.000   0.000  -0.000   0.000   0.000   0.000  -0.000   0.000   0.226   0.000  -0.000  -0.001
  0.000  -0.000   0.000  -0.000   0.000  -0.000   0.000  -0.000   0.000  -0.000   0.000  -0.000   0.000   0.200  -0.000   0.000
  0.000  -0.000  -0.000  -0.000   0.000  -0.000   0.000  -0.000  -0.000   0.000  -0.000   0.000  -0.000  -0.000   0.226   0.000
  0.000   0.000   0.000  -0.000   0.000  -0.000  -0.000   0.000  -0.000  -0.000   0.000  -0.000  -0.001   0.000   0.000   0.000
 -0.000   0.000   0.000   0.000  -0.000  -0.000   0.000   0.000   0.000  -0.000   0.000  -0.000  -0.000  -0.001   0.000  -0.000
  0.000   0.000  -0.000  -0.000  -0.000   0.000   0.000   0.000   0.000  -0.000   0.000  -0.000  -0.000   0.000  -0.001  -0.000
 total augmentation occupancy for first ion, spin component:           2
  0.039   0.000   0.000  -0.000  -0.000   0.007   0.000  -0.000   0.000  -0.000   0.000  -0.000   0.000  -0.000  -0.000   0.000
  0.000   0.216   0.000  -0.000   0.000  -0.000  -0.049   0.000   0.000   0.000  -0.000  -0.000  -0.000  -0.000   0.000  -0.000
  0.000   0.000   0.022   0.000   0.000   0.000   0.000   0.007   0.000  -0.000   0.000   0.000   0.000  -0.000  -0.000  -0.000
 -0.000  -0.000   0.000   0.216  -0.000   0.000   0.000   0.000  -0.049  -0.000  -0.000   0.000  -0.000  -0.000  -0.000   0.000
 -0.000   0.000   0.000  -0.000   0.114  -0.000  -0.000   0.000   0.000  -0.024  -0.000  -0.000   0.000  -0.000  -0.000   0.000
  0.007  -0.000   0.000   0.000  -0.000  -0.031  -0.000  -0.000  -0.000   0.000  -0.000   0.000  -0.000   0.000   0.000   0.000
  0.000  -0.049   0.000   0.000  -0.000  -0.000  -0.016  -0.000  -0.000  -0.000  -0.000   0.000   0.000  -0.000   0.000  -0.000
 -0.000   0.000   0.007   0.000   0.000  -0.000  -0.000  -0.033  -0.000  -0.000  -0.003   0.001   0.000   0.000   0.000  -0.000
  0.000   0.000   0.000  -0.049   0.000  -0.000  -0.000  -0.000  -0.016   0.000   0.000   0.000   0.000   0.000   0.000   0.000
 -0.000   0.000  -0.000  -0.000  -0.024   0.000  -0.000  -0.000   0.000  -0.018   0.000  -0.000  -0.000  -0.000   0.000   0.000
  0.000  -0.000   0.000  -0.000  -0.000  -0.000  -0.000  -0.003   0.000   0.000  -0.021   0.005   0.000  -0.000  -0.000   0.000
 -0.000  -0.000   0.000   0.000  -0.000   0.000   0.000   0.001   0.000  -0.000   0.005  -0.000  -0.000   0.000  -0.000  -0.000
  0.000  -0.000   0.000  -0.000   0.000  -0.000   0.000   0.000   0.000  -0.000   0.000  -0.000   0.002  -0.000  -0.000   0.000
 -0.000  -0.000  -0.000  -0.000  -0.000   0.000  -0.000   0.000   0.000  -0.000  -0.000   0.000  -0.000  -0.004  -0.000  -0.000
 -0.000   0.000  -0.000  -0.000  -0.000   0.000   0.000   0.000   0.000   0.000  -0.000  -0.000  -0.000  -0.000   0.002  -0.000
  0.000  -0.000  -0.000   0.000   0.000   0.000  -0.000  -0.000   0.000   0.000   0.000  -0.000   0.000  -0.000  -0.000  -0.000
  0.000   0.000   0.000   0.000   0.000  -0.000   0.000   0.000  -0.000   0.000   0.000  -0.000   0.000   0.000   0.000   0.000
 -0.000   0.000  -0.000   0.000  -0.000   0.000  -0.000  -0.000   0.000  -0.000   0.000  -0.000   0.000  -0.000   0.000   0.000


------------------------ aborting loop because EDIFF is reached ----------------------------------------


    CHARGE:  cpu time      0.7218: real time      1.4449
    FORLOC:  cpu time      0.0091: real time      0.0091
    FORNL :  cpu time      0.1178: real time      0.2318
    STRESS:  cpu time      0.5500: real time      1.0890
    FORCOR:  cpu time      1.5839: real time      3.1700
    FORHAR:  cpu time      0.3320: real time      0.6690
    MIXING:  cpu time      0.6577: real time      1.3089
    OFIELD:  cpu time      0.0001: real time      0.0001

  FORCE on cell =-STRESS in cart. coord.  units (eV):
  Direction    XX          YY          ZZ          XY          YZ          ZX
  --------------------------------------------------------------------------------------
  Alpha Z    27.09645    27.09645    27.09645
  Ewald     -98.84632   -98.84632   -98.84632    -0.00000     0.00000     0.00000
  Hartree    11.49584    11.49584    11.28024     0.00000    -0.00000    -0.00000
  E(xc)     -25.44543   -25.44543   -25.44144    -0.00000    -0.00000    -0.00000
  Local      17.57721    17.57721    18.19352    -0.00000     0.00000     0.00000
  n-local   -11.38611   -11.38611   -11.83870     0.00000    -0.00000    -0.00000
  augment    28.01763    28.01763    28.04986    -0.00000    -0.00000     0.00000
  Kinetic    49.13445    49.13445    49.36716     0.00000    -0.00000     0.00000
  Fock        0.00000     0.00000     0.00000     0.00000     0.00000     0.00000
  -------------------------------------------------------------------------------------
  Total      -2.35628    -2.35628    -2.13923     0.00000    -0.00000     0.00000
  in kB    -247.50361  -247.50361  -224.70475     0.00000    -0.00000     0.00000
  external pressure =     -239.90 kB  Pullay stress =        0.00 kB


 VOLUME and BASIS-vectors are now :
 -----------------------------------------------------------------------------
  energy-cutoff  :      500.00
  volume of cell :       15.25
      direct lattice vectors                 reciprocal lattice vectors
     2.480000000  0.000000000  0.000000000     0.403225806  0.000000000  0.000000000
     0.000000000  2.480000000  0.000000000     0.000000000  0.403225806  0.000000000
     0.000000000  0.000000000  2.480000000     0.000000000  0.000000000  0.403225806

  length of vectors
     2.480000000  2.480000000  2.480000000     0.403225806  0.403225806  0.403225806


 FORCES acting on ions
    electron-ion (+dipol)            ewald-force                    non-local-force                 convergence-correction
 -----------------------------------------------------------------------------------------------
   -.598E-11 0.127E-11 -.612E-10   -.510E-15 0.532E-15 0.370E-16   -.444E-09 0.486E-09 -.205E-09   -.700E-10 0.107E-09 0.701E-10
 -----------------------------------------------------------------------------------------------
   -.598E-11 0.127E-11 -.612E-10   -.510E-15 0.532E-15 0.370E-16   -.444E-09 0.486E-09 -.205E-09   -.700E-10 0.107E-09 0.701E-10
 
 
 POSITION                                       TOTAL-FORCE (eV/Angst)
 -----------------------------------------------------------------------------------
      0.00000      0.00000      0.00000        -0.000000      0.000000     -0.000000
 -----------------------------------------------------------------------------------
    total drift:                               -0.000000      0.000000     -0.000000


--------------------------------------------------------------------------------------------------------



  FREE ENERGIE OF THE ION-ELECTRON SYSTEM (eV)
  ---------------------------------------------------
  free  energy   TOTEN  =        -8.25682366 eV

  energy  without entropy=       -8.25448277  energy(sigma->0) =       -8.25565322
 


--------------------------------------------------------------------------------------------------------


    POTLOK:  cpu time      2.6638: real time      5.3350


--------------------------------------------------------------------------------------------------------


     LOOP+:  cpu time   4410.9675: real time   8822.6589
    4ORBIT:  cpu time      0.0000: real time      0.0000

 total amount of memory used by VASP MPI-rank0    36107. kBytes
=======================================================================

   base                                    :      30000. kBytes
   nonl-proj                               :       4361. kBytes
   fftplans                                :         77. kBytes
   grid                                    :        574. kBytes
   one-center                              :         31. kBytes
   wavefun                                 :       1064. kBytes
 
  
  
 General timing and accounting informations for this job:
 ========================================================
  
                  Total CPU time used (sec):     4590.026
                            User time (sec):     3751.162
                          System time (sec):      838.865
                         Elapsed time (sec):     9305.118
  
                   Maximum memory used (kb):      196300.
                   Average memory used (kb):          N/A
  
                          Minor page faults:        14328
                          Major page faults:         8515
                 Voluntary context switches:           42
