 running   42 mpi-ranks, on    1 nodes
 distrk:  each k-point on   42 cores,    1 groups
 distr:  one band on    1 cores,   42 groups
 vasp.6.5.1 10Mar25 (build Apr 08 2025 20:07:02) complex                        
  
 POSCAR found type information on POSCAR Cr
 POSCAR found :  1 types and       1 ions
 scaLAPACK will be used
 -----------------------------------------------------------------------------
|                                                                             |
|           W    W    AA    RRRRR   N    N  II  N    N   GGGG   !!!           |
|           W    W   A  A   R    R  NN   N  II  NN   N  G    G  !!!           |
|           W    W  A    A  R    R  N N  N  II  N N  N  G       !!!           |
|           W WW W  AAAAAA  RRRRR   N  N N  II  N  N N  G  GGG   !            |
|           WW  WW  A    A  R   R   N   NN  II  N   NN  G    G                |
|           W    W  A    A  R    R  N    N  II  N    N   GGGG   !!!           |
|                                                                             |
|     For optimal performance we recommend to set                             |
|       NCORE = 2 up to number-of-cores-per-socket                            |
|     NCORE specifies how many cores store one orbital (NPAR=cpu/NCORE).      |
|     This setting can greatly improve the performance of VASP for DFT.       |
|     The default, NCORE=1 might be grossly inefficient on modern             |
|     multi-core architectures or massively parallel machines. Do your        |
|     own testing! More info at https://www.vasp.at/wiki/index.php/NCORE      |
|     Unfortunately you need to use the default for GW and RPA                |
|     calculations (for HF NCORE is supported but not extensively tested      |
|     yet).                                                                   |
|                                                                             |
 -----------------------------------------------------------------------------

 LDA part: xc-table for (Slater+PW92), standard interpolation
 -----------------------------------------------------------------------------
|                                                                             |
|           W    W    AA    RRRRR   N    N  II  N    N   GGGG   !!!           |
|           W    W   A  A   R    R  NN   N  II  NN   N  G    G  !!!           |
|           W    W  A    A  R    R  N N  N  II  N N  N  G       !!!           |
|           W WW W  AAAAAA  RRRRR   N  N N  II  N  N N  G  GGG   !            |
|           WW  WW  A    A  R   R   N   NN  II  N   NN  G    G                |
|           W    W  A    A  R    R  N    N  II  N    N   GGGG   !!!           |
|                                                                             |
|     Your reciprocal lattice and k-lattice belong to different lattice       |
|     classes:                                                                |
|                                                                             |
|        The reciprocal lattice is simple cubic,                              |
|        whereas your k-lattice is simple tetragonal.                         |
|                                                                             |
|     Results are often still useful ...                                      |
|                                                                             |
 -----------------------------------------------------------------------------

 POSCAR, INCAR and KPOINTS ok, starting setup
 FFT: planning ... GRIDC
 FFT: planning ... GRID_SOFT
 FFT: planning ... GRID
 WAVECAR not read
 entering main loop
       N       E                     dE             d eps       ncg     rms          rms(c)
DAV:   1    -0.629504060778E+01   -0.62950E+01   -0.29456E+03 15624   0.159E+02
DAV:   2    -0.718404777445E+01   -0.88901E+00   -0.81197E+00 14952   0.624E+00
DAV:   3    -0.718429180877E+01   -0.24403E-03   -0.24402E-03 18102   0.127E-01
DAV:   4    -0.718429181243E+01   -0.36557E-08   -0.35342E-08 16464   0.256E-04
DAV:   5    -0.718429181284E+01   -0.41581E-09   -0.75782E-13 17052   0.701E-08    0.989E+00
DAV:   6    -0.795277535966E+01   -0.76848E+00   -0.36950E+00 16968   0.515E+00    0.412E+00
DAV:   7    -0.819892622527E+01   -0.24615E+00   -0.89838E-01 16632   0.210E+00    0.240E+00
DAV:   8    -0.822887033837E+01   -0.29944E-01   -0.55545E-02 17304   0.459E-01    0.192E+00
DAV:   9    -0.825255795266E+01   -0.23688E-01   -0.81775E-02 16632   0.498E-01    0.650E-01
DAV:  10    -0.825463711421E+01   -0.20792E-02   -0.48758E-03 18144   0.130E-01    0.316E-01
DAV:  11    -0.825508246966E+01   -0.44536E-03   -0.34179E-03 17472   0.142E-01    0.275E-01
DAV:  12    -0.825598542884E+01   -0.90296E-03   -0.19495E-03 17976   0.812E-02    0.144E-01
DAV:  13    -0.825636851147E+01   -0.38308E-03   -0.20165E-04 16968   0.268E-02    0.139E-01
DAV:  14    -0.825672130882E+01   -0.35280E-03   -0.24088E-03 17808   0.852E-02    0.634E-02
DAV:  15    -0.825678889083E+01   -0.67582E-04   -0.42744E-04 17472   0.388E-02    0.348E-02
DAV:  16    -0.825682100399E+01   -0.32113E-04   -0.18765E-05 16800   0.101E-02    0.192E-02
DAV:  17    -0.825682360262E+01   -0.25986E-05   -0.40528E-06 17472   0.382E-03    0.813E-03
DAV:  18    -0.825682366338E+01   -0.60757E-07   -0.10042E-06 13272   0.195E-03
   1 F= -.82568237E+01 E0= -.82556532E+01  d E =-.234089E-02  mag=     0.2365
