<?xml version="1.0" encoding="ISO-8859-1"?>
<modeling>
 <generator>
  <i name="program" type="string">vasp </i>
  <i name="version" type="string">6.5.1  </i>
  <i name="subversion" type="string">10Mar25 (build Apr 08 2025 20:07:02) complex                          parallel </i>
  <i name="platform" type="string">LinuxIFC </i>
  <i name="date" type="string">2025 06 11 </i>
  <i name="time" type="string">14:32:40 </i>
 </generator>
 <incar>
  <i type="string" name="PREC">Accurate</i>
  <i type="int" name="ISPIN">     2</i>
  <i type="int" name="IBRION">    -1</i>
  <i name="EDIFF">      0.00000100</i>
  <i type="int" name="NSW">     0</i>
  <i type="int" name="ISYM">     0</i>
  <i name="ENCUT">    500.00000000</i>
  <v name="MAGMOM">      5.00000000</v>
  <i type="logical" name="LREAL"> F  </i>
  <i type="int" name="ISMEAR">     0</i>
  <i name="SIGMA">      0.05000000</i>
  <i type="logical" name="LWAVE"> F  </i>
  <i type="logical" name="LCHARG"> F  </i>
 </incar>
 <primitive_cell>
  <structure name="primitive_cell" >
   <crystal>
    <varray name="basis" >
     <v>       2.48000000       0.00000000       0.00000000 </v>
     <v>       0.00000000       2.48000000       0.00000000 </v>
     <v>       0.00000000       0.00000000       2.48000000 </v>
    </varray>
    <i name="volume">     15.25299200 </i>
    <varray name="rec_basis" >
     <v>       0.40322581       0.00000000       0.00000000 </v>
     <v>       0.00000000       0.40322581       0.00000000 </v>
     <v>       0.00000000       0.00000000       0.40322581 </v>
    </varray>
   </crystal>
   <varray name="positions" >
    <v>       0.00000000       0.00000000       0.00000000 </v>
   </varray>
  </structure>
  <varray name="primitive_index" >
   <v type="int" >        1 </v>
  </varray>
 </primitive_cell>
 <kpoints>
  <generation param="Monkhorst-Pack">
   <v type="int" name="divisions">       6        6        4 </v>
   <v name="usershift">      0.00000000       0.00000000       0.00000000 </v>
   <v name="genvec1">      0.16666667       0.00000000       0.00000000 </v>
   <v name="genvec2">      0.00000000       0.16666667       0.00000000 </v>
   <v name="genvec3">      0.00000000       0.00000000       0.25000000 </v>
   <v name="shift">      0.50000000       0.50000000       0.50000000 </v>
  </generation>
  <varray name="kpointlist" >
   <v>       0.08333333       0.08333333       0.12500000 </v>
   <v>       0.25000000       0.08333333       0.12500000 </v>
   <v>       0.41666667       0.08333333       0.12500000 </v>
   <v>      -0.41666667       0.08333333       0.12500000 </v>
   <v>      -0.25000000       0.08333333       0.12500000 </v>
   <v>      -0.08333333       0.08333333       0.12500000 </v>
   <v>       0.08333333       0.25000000       0.12500000 </v>
   <v>       0.25000000       0.25000000       0.12500000 </v>
   <v>       0.41666667       0.25000000       0.12500000 </v>
   <v>      -0.41666667       0.25000000       0.12500000 </v>
   <v>      -0.25000000       0.25000000       0.12500000 </v>
   <v>      -0.08333333       0.25000000       0.12500000 </v>
   <v>       0.08333333       0.41666667       0.12500000 </v>
   <v>       0.25000000       0.41666667       0.12500000 </v>
   <v>       0.41666667       0.41666667       0.12500000 </v>
   <v>      -0.41666667       0.41666667       0.12500000 </v>
   <v>      -0.25000000       0.41666667       0.12500000 </v>
   <v>      -0.08333333       0.41666667       0.12500000 </v>
   <v>       0.08333333      -0.41666667       0.12500000 </v>
   <v>       0.25000000      -0.41666667       0.12500000 </v>
   <v>       0.41666667      -0.41666667       0.12500000 </v>
   <v>      -0.41666667      -0.41666667       0.12500000 </v>
   <v>      -0.25000000      -0.41666667       0.12500000 </v>
   <v>      -0.08333333      -0.41666667       0.12500000 </v>
   <v>       0.08333333      -0.25000000       0.12500000 </v>
   <v>       0.25000000      -0.25000000       0.12500000 </v>
   <v>       0.41666667      -0.25000000       0.12500000 </v>
   <v>      -0.41666667      -0.25000000       0.12500000 </v>
   <v>      -0.25000000      -0.25000000       0.12500000 </v>
   <v>      -0.08333333      -0.25000000       0.12500000 </v>
   <v>       0.08333333      -0.08333333       0.12500000 </v>
   <v>       0.25000000      -0.08333333       0.12500000 </v>
   <v>       0.41666667      -0.08333333       0.12500000 </v>
   <v>      -0.41666667      -0.08333333       0.12500000 </v>
   <v>      -0.25000000      -0.08333333       0.12500000 </v>
   <v>      -0.08333333      -0.08333333       0.12500000 </v>
   <v>       0.08333333       0.08333333       0.37500000 </v>
   <v>       0.25000000       0.08333333       0.37500000 </v>
   <v>       0.41666667       0.08333333       0.37500000 </v>
   <v>      -0.41666667       0.08333333       0.37500000 </v>
   <v>      -0.25000000       0.08333333       0.37500000 </v>
   <v>      -0.08333333       0.08333333       0.37500000 </v>
   <v>       0.08333333       0.25000000       0.37500000 </v>
   <v>       0.25000000       0.25000000       0.37500000 </v>
   <v>       0.41666667       0.25000000       0.37500000 </v>
   <v>      -0.41666667       0.25000000       0.37500000 </v>
   <v>      -0.25000000       0.25000000       0.37500000 </v>
   <v>      -0.08333333       0.25000000       0.37500000 </v>
   <v>       0.08333333       0.41666667       0.37500000 </v>
   <v>       0.25000000       0.41666667       0.37500000 </v>
   <v>       0.41666667       0.41666667       0.37500000 </v>
   <v>      -0.41666667       0.41666667       0.37500000 </v>
   <v>      -0.25000000       0.41666667       0.37500000 </v>
   <v>      -0.08333333       0.41666667       0.37500000 </v>
   <v>       0.08333333      -0.41666667       0.37500000 </v>
   <v>       0.25000000      -0.41666667       0.37500000 </v>
   <v>       0.41666667      -0.41666667       0.37500000 </v>
   <v>      -0.41666667      -0.41666667       0.37500000 </v>
   <v>      -0.25000000      -0.41666667       0.37500000 </v>
   <v>      -0.08333333      -0.41666667       0.37500000 </v>
   <v>       0.08333333      -0.25000000       0.37500000 </v>
   <v>       0.25000000      -0.25000000       0.37500000 </v>
   <v>       0.41666667      -0.25000000       0.37500000 </v>
   <v>      -0.41666667      -0.25000000       0.37500000 </v>
   <v>      -0.25000000      -0.25000000       0.37500000 </v>
   <v>      -0.08333333      -0.25000000       0.37500000 </v>
   <v>       0.08333333      -0.08333333       0.37500000 </v>
   <v>       0.25000000      -0.08333333       0.37500000 </v>
   <v>       0.41666667      -0.08333333       0.37500000 </v>
   <v>      -0.41666667      -0.08333333       0.37500000 </v>
   <v>      -0.25000000      -0.08333333       0.37500000 </v>
   <v>      -0.08333333      -0.08333333       0.37500000 </v>
  </varray>
  <varray name="weights" >
   <v>       0.01388889 </v>
   <v>       0.01388889 </v>
   <v>       0.01388889 </v>
   <v>       0.01388889 </v>
   <v>       0.01388889 </v>
   <v>       0.01388889 </v>
   <v>       0.01388889 </v>
   <v>       0.01388889 </v>
   <v>       0.01388889 </v>
   <v>       0.01388889 </v>
   <v>       0.01388889 </v>
   <v>       0.01388889 </v>
   <v>       0.01388889 </v>
   <v>       0.01388889 </v>
   <v>       0.01388889 </v>
   <v>       0.01388889 </v>
   <v>       0.01388889 </v>
   <v>       0.01388889 </v>
   <v>       0.01388889 </v>
   <v>       0.01388889 </v>
   <v>       0.01388889 </v>
   <v>       0.01388889 </v>
   <v>       0.01388889 </v>
   <v>       0.01388889 </v>
   <v>       0.01388889 </v>
   <v>       0.01388889 </v>
   <v>       0.01388889 </v>
   <v>       0.01388889 </v>
   <v>       0.01388889 </v>
   <v>       0.01388889 </v>
   <v>       0.01388889 </v>
   <v>       0.01388889 </v>
   <v>       0.01388889 </v>
   <v>       0.01388889 </v>
   <v>       0.01388889 </v>
   <v>       0.01388889 </v>
   <v>       0.01388889 </v>
   <v>       0.01388889 </v>
   <v>       0.01388889 </v>
   <v>       0.01388889 </v>
   <v>       0.01388889 </v>
   <v>       0.01388889 </v>
   <v>       0.01388889 </v>
   <v>       0.01388889 </v>
   <v>       0.01388889 </v>
   <v>       0.01388889 </v>
   <v>       0.01388889 </v>
   <v>       0.01388889 </v>
   <v>       0.01388889 </v>
   <v>       0.01388889 </v>
   <v>       0.01388889 </v>
   <v>       0.01388889 </v>
   <v>       0.01388889 </v>
   <v>       0.01388889 </v>
   <v>       0.01388889 </v>
   <v>       0.01388889 </v>
   <v>       0.01388889 </v>
   <v>       0.01388889 </v>
   <v>       0.01388889 </v>
   <v>       0.01388889 </v>
   <v>       0.01388889 </v>
   <v>       0.01388889 </v>
   <v>       0.01388889 </v>
   <v>       0.01388889 </v>
   <v>       0.01388889 </v>
   <v>       0.01388889 </v>
   <v>       0.01388889 </v>
   <v>       0.01388889 </v>
   <v>       0.01388889 </v>
   <v>       0.01388889 </v>
   <v>       0.01388889 </v>
   <v>       0.01388889 </v>
  </varray>
 </kpoints>
 <parameters>
  <separator name="general" >
   <i type="string" name="SYSTEM">unknown system</i>
   <i type="logical" name="LCOMPAT"> F  </i>
  </separator>
  <separator name="electronic" >
   <i type="string" name="PREC">accura</i>
   <i name="ENMAX">    500.00000000</i>
   <i name="ENAUG">    402.10800000</i>
   <i name="EDIFF">      0.00000100</i>
   <i type="int" name="IALGO">    38</i>
   <i type="int" name="IWAVPR">    10</i>
   <i type="int" name="NBANDS">    42</i>
   <i type="int" name="NBANDSLOW">    -1</i>
   <i type="int" name="NBANDSHIGH">    -1</i>
   <i name="NELECT">      6.00000000</i>
   <i type="int" name="TURBO">     0</i>
   <i type="int" name="IRESTART">     0</i>
   <i type="int" name="NREBOOT">     0</i>
   <i type="int" name="NMIN">     0</i>
   <i name="EREF">      0.00000000</i>
   <separator name="electronic smearing" >
    <i type="int" name="ISMEAR">     0</i>
    <i name="SIGMA">      0.05000000</i>
    <i name="KSPACING">      0.50000000</i>
    <i type="logical" name="KGAMMA"> T  </i>
    <i type="logical" name="KBLOWUP"> F  </i>
   </separator>
   <separator name="electronic projectors" >
    <i type="logical" name="LREAL"> F  </i>
    <v name="ROPT">      0.00000000</v>
    <i type="int" name="LMAXPAW">  -100</i>
    <i type="int" name="LMAXMIX">     2</i>
    <i type="logical" name="NLSPLINE"> F  </i>
   </separator>
   <separator name="electronic startup" >
    <i type="int" name="ISTART">     0</i>
    <i type="int" name="ICHARG">     2</i>
    <i type="int" name="INIWAV">     1</i>
   </separator>
   <separator name="electronic spin" >
    <i type="int" name="ISPIN">     2</i>
    <i type="logical" name="LNONCOLLINEAR"> F  </i>
    <v name="MAGMOM">      5.00000000</v>
    <i name="NUPDOWN">     -1.00000000</i>
    <i type="logical" name="LSORBIT"> F  </i>
    <v name="SAXIS">      0.00000000      0.00000000      1.00000000</v>
    <i type="logical" name="LSPIRAL"> F  </i>
    <v name="QSPIRAL">      0.00000000      0.00000000      0.00000000</v>
    <i type="logical" name="LZEROZ"> F  </i>
   </separator>
   <separator name="electronic exchange-correlation" >
    <i type="logical" name="LASPH"> F  </i>
   </separator>
   <separator name="electronic convergence" >
    <i type="int" name="NELM">    60</i>
    <i type="int" name="NELMDL">    -5</i>
    <i type="int" name="NELMIN">     2</i>
    <i name="ENINI">    500.00000000</i>
    <separator name="electronic convergence detail" >
     <i type="logical" name="LDIAG"> T  </i>
     <i type="logical" name="LSUBROT"> F  </i>
     <i type="logical" name="LROBUST"> F  </i>
     <i type="int" name="ISEARCH">     0</i>
     <i name="WEIMIN">      0.00000000</i>
     <i name="EBREAK">      0.00000001</i>
     <i name="DEPER">      0.30000000</i>
     <i type="int" name="NRMM">     4</i>
     <i name="TIME">      0.40000000</i>
    </separator>
   </separator>
   <separator name="electronic mixer" >
    <i name="AMIX">      0.40000000</i>
    <i name="BMIX">      1.00000000</i>
    <i name="AMIN">      0.10000000</i>
    <i name="AMIX_MAG">      1.60000000</i>
    <i name="BMIX_MAG">      1.00000000</i>
    <separator name="electronic mixer details" >
     <i type="int" name="IMIX">     4</i>
     <i type="logical" name="MIXFIRST"> F  </i>
     <i type="int" name="MAXMIX">   -45</i>
     <i name="WC">    100.00000000</i>
     <i type="int" name="INIMIX">     1</i>
     <i type="int" name="MIXPRE">     1</i>
     <i type="int" name="MREMOVE">     5</i>
    </separator>
   </separator>
   <separator name="electronic dipolcorrection" >
    <i type="logical" name="LDIPOL"> F  </i>
    <i type="logical" name="LMONO"> F  </i>
    <i type="int" name="IDIPOL">     0</i>
    <i name="EPSILON">      1.00000000</i>
    <v name="DIPOL">   -100.00000000   -100.00000000   -100.00000000</v>
    <i name="EFIELD">      0.00000000</i>
    <i type="logical" name="LVACPOTAV"> F  </i>
   </separator>
  </separator>
  <separator name="grids" >
   <i type="int" name="NGX">    18</i>
   <i type="int" name="NGY">    18</i>
   <i type="int" name="NGZ">    18</i>
   <i type="int" name="NGXF">    36</i>
   <i type="int" name="NGYF">    36</i>
   <i type="int" name="NGZF">    36</i>
   <i type="logical" name="ADDGRID"> F  </i>
  </separator>
  <separator name="ionic" >
   <i type="int" name="NSW">     0</i>
   <i type="int" name="IBRION">    -1</i>
   <i type="int" name="MDALGO">     0</i>
   <i type="int" name="ISIF">     2</i>
   <i name="PSTRESS">      0.00000000</i>
   <i name="EDIFFG">      0.00001000</i>
   <i type="int" name="NFREE">     0</i>
   <i name="POTIM">      0.50000000</i>
   <i name="SMASS">     -3.00000000</i>
   <i name="SCALEE">      1.00000000</i>
  </separator>
  <separator name="ionic md" >
   <i name="TEBEG">      0.00010000</i>
   <i name="TEEND">      0.00010000</i>
   <i type="int" name="NBLOCK">     1</i>
   <i type="int" name="KBLOCK">     1</i>
   <i type="int" name="NPACO">   256</i>
   <i name="APACO">     10.00000000</i>
  </separator>
  <separator name="symmetry" >
   <i type="int" name="ISYM">     0</i>
   <i name="SYMPREC">      0.00001000</i>
  </separator>
  <separator name="dos" >
   <i type="int" name="LORBIT">     0</i>
   <v name="RWIGS">     -1.00000000</v>
   <i type="int" name="NEDOS">   301</i>
   <i name="EMIN">     10.00000000</i>
   <i name="EMAX">    -10.00000000</i>
   <i name="EFERMI">      0.00000000</i>
  </separator>
  <separator name="writing" >
   <i type="int" name="NWRITE">     2</i>
   <i type="logical" name="LWAVE"> F  </i>
   <i type="logical" name="LDOWNSAMPLE"> F  </i>
   <i type="logical" name="LCHARG"> F  </i>
   <i type="logical" name="LPARD"> F  </i>
   <i type="logical" name="LVTOT"> F  </i>
   <i type="logical" name="LVHAR"> F  </i>
   <i type="logical" name="LELF"> F  </i>
   <i type="logical" name="LOPTICS"> F  </i>
   <v name="STM">      0.00000000      0.00000000      0.00000000      0.00000000      0.00000000      0.00000000      0.00000000</v>
  </separator>
  <separator name="performance" >
   <i type="int" name="NPAR">    42</i>
   <i type="int" name="NSIM">     4</i>
   <i type="int" name="NBLK">    -1</i>
   <i type="logical" name="LPLANE"> T  </i>
   <i type="logical" name="LSCALAPACK"> T  </i>
   <i type="logical" name="LSCAAWARE"> T  </i>
   <i type="logical" name="LSCALU"> F  </i>
   <i type="logical" name="LASYNC"> F  </i>
   <i type="logical" name="LORBITALREAL"> F  </i>
  </separator>
  <separator name="miscellaneous" >
   <i type="int" name="IDIOT">     3</i>
   <i type="int" name="PHON_NSTRUCT">    -1</i>
   <i type="logical" name="LMUSIC"> F  </i>
   <v name="POMASS">     51.99600000</v>
   <v name="DARWINR">      0.00000000</v>
   <v name="DARWINV">      1.00000000</v>
   <i type="logical" name="LCORR"> T  </i>
  </separator>
  <i type="logical" name="GGA_COMPAT"> T  </i>
  <i type="logical" name="LBERRY"> F  </i>
  <i type="int" name="ICORELEVEL">     0</i>
  <i type="logical" name="LDAU"> F  </i>
  <i type="int" name="I_CONSTRAINED_M">     0</i>
  <separator name="electronic exchange-correlation" >
   <i type="string" name="GGA    ">PE</i>
   <i type="string" name="XC_C">1</i>
   <i type="int" name="VOSKOWN">     0</i>
   <i type="logical" name="LHFCALC"> F  </i>
   <i type="string" name="PRECFOCK"></i>
   <i type="logical" name="LSYMGRAD"> F  </i>
   <i type="logical" name="LHFONE"> F  </i>
   <i type="logical" name="LRHFCALC"> F  </i>
   <i type="logical" name="LTHOMAS"> F  </i>
   <i type="logical" name="LMODELHF"> F  </i>
   <i type="logical" name="LFOCKACE"> F  </i>
   <i name="ENCUT4O">     -1.00000000</i>
   <i type="int" name="EXXOEP">     0</i>
   <i type="int" name="FOURORBIT">     0</i>
   <i name="AEXX">      0.00000000</i>
   <i name="HFALPHA">      0.00000000</i>
   <i name="MCALPHA">      0.00000000</i>
   <i name="ALDAX">      1.00000000</i>
   <i name="AGGAX">      1.00000000</i>
   <i name="AMGGAX">      1.00000000</i>
   <i name="ALDAC">      1.00000000</i>
   <i name="AGGAC">      1.00000000</i>
   <i name="AMGGAC">      1.00000000</i>
   <i type="int" name="NKREDX">     1</i>
   <i type="int" name="NKREDY">     1</i>
   <i type="int" name="NKREDZ">     1</i>
   <i type="logical" name="SHIFTRED"> F  </i>
   <i type="logical" name="ODDONLY"> F  </i>
   <i type="logical" name="EVENONLY"> F  </i>
   <i type="int" name="LMAXFOCK">     0</i>
   <i type="int" name="NMAXFOCKAE">     0</i>
   <i type="logical" name="LFOCKAEDFT"> F  </i>
   <i name="HFSCREEN">      0.00000000</i>
   <i name="HFSCREENC">      0.00000000</i>
   <i type="int" name="NBANDSGWLOW">     0</i>
  </separator>
  <separator name="vdW DFT" >
   <i type="logical" name="LUSE_VDW"> F  </i>
   <i type="int" name="IVDW_NL">    -1</i>
   <i type="logical" name="LSPIN_VDW"> F  </i>
   <i name="ZAB_VDW">     -0.84910000</i>
   <i name="GAMMA_VDW">      1.39626340</i>
   <i name="ALPHA_VDW">      0.00000000</i>
   <i name="PARAM1">      0.12340000</i>
   <i name="PARAM2">      1.00000000</i>
   <i name="BPARAM">      6.30000000</i>
   <i name="CPARAM">      0.00930000</i>
  </separator>
  <separator name="model GW" >
   <i type="int" name="MODEL_GW">     0</i>
   <i name="MODEL_EPS0">      9.15179520</i>
   <i name="MODEL_ALPHA">      1.00000000</i>
  </separator>
  <separator name="linear response parameters" >
   <i type="logical" name="LEPSILON"> F  </i>
   <i type="logical" name="LRPA"> F  </i>
   <i type="logical" name="LNABLA"> F  </i>
   <i type="logical" name="LVEL"> F  </i>
   <i name="CSHIFT">      0.10000000</i>
   <i name="OMEGAMAX">     -1.00000000</i>
   <i name="DEG_THRESHOLD">      0.00200000</i>
   <i name="RTIME">     -0.10000000</i>
   <i name="WPLASMAI">      0.00000000</i>
   <v name="DFIELD">      0.00000000      0.00000000      0.00000000</v>
   <v name="WPLASMA">      0.00000000      0.00000000      0.00000000      0.00000000      0.00000000      0.00000000      0.00000000      0.00000000      0.00000000</v>
  </separator>
  <separator name="orbital magnetization" >
   <i type="logical" name="NUCIND"> F  </i>
   <v name="MAGPOS">      0.00000000      0.00000000      0.00000000</v>
   <i type="logical" name="LNICSALL"> T  </i>
   <i type="logical" name="ORBITALMAG"> F  </i>
   <i type="logical" name="LMAGBLOCH"> F  </i>
   <i type="logical" name="LCHIMAG"> F  </i>
   <i type="logical" name="LGAUGE"> T  </i>
   <i type="int" name="MAGATOM">     0</i>
   <v name="MAGDIPOL">      0.00000000      0.00000000      0.00000000</v>
   <v name="AVECCONST">      0.00000000      0.00000000      0.00000000</v>
  </separator>
  <separator name="response functions" >
   <i type="logical" name="LALL_IN_ONE"> F  </i>
   <i type="int" name="IALL_IN_ONE">    -1</i>
   <i type="int" name="NBANDS_WAVE">    -1</i>
   <i type="logical" name="LFINITE_TEMPERATURE"> F  </i>
   <i type="logical" name="LADDER"> F  </i>
   <i type="logical" name="LRPAFORCE"> F  </i>
   <i type="logical" name="LFXC"> F  </i>
   <i type="logical" name="LHARTREE"> T  </i>
   <i type="int" name="IBSE">     2</i>
   <v type="int" name="KPOINT">    -1     0     0     0</v>
   <i type="logical" name="LTCTC"> F  </i>
   <i type="logical" name="LTCTE"> F  </i>
   <i type="logical" name="LTETE"> F  </i>
   <i type="logical" name="LTRIPLET"> F  </i>
   <i type="logical" name="LFXCEPS"> F  </i>
   <i type="logical" name="LFXHEG"> F  </i>
   <i type="int" name="NATURALO">     2</i>
   <i type="logical" name="LHOLEGF"> F  </i>
   <i type="logical" name="L2ORDER"> F  </i>
   <i type="logical" name="LDMP1"> F  </i>
   <i type="logical" name="LMP2LT"> F  </i>
   <i type="logical" name="LSMP2LT"> F  </i>
   <i type="logical" name="LGWLF"> F  </i>
   <i name="ENCUTGW">     -1.60000002</i>
   <i name="ENCUTGWSOFT">     -1.60000002</i>
   <i name="ENCUTLF">     -1.00000000</i>
   <i type="logical" name="ESF_SPLINES"> F  </i>
   <i name="ESF_CONV">      0.01000000</i>
   <i type="int" name="ESF_NINTER">    15</i>
   <i type="int" name="LMAXMP2">    -1</i>
   <i name="SCISSOR">      0.00000000</i>
   <i type="int" name="NOMEGA">     0</i>
   <i type="int" name="NOMEGAR">     0</i>
   <i type="int" name="NBANDSGW">    -1</i>
   <i type="int" name="NBANDSO">    -1</i>
   <i type="int" name="NBANDSV">    -1</i>
   <i type="int" name="NELMGW">     1</i>
   <i type="int" name="NELMHF">     1</i>
   <i type="int" name="DIM">     3</i>
   <i type="int" name="IESPILON">     4</i>
   <i type="int" name="ANTIRES">     0</i>
   <i name="OMEGAMAX">    -30.00000000</i>
   <i name="OMEGAMIN">    -30.00000000</i>
   <i name="OMEGATL">   -200.00000000</i>
   <i type="int" name="OMEGAGRID">     0</i>
   <i name="CSHIFT">     -0.10000000</i>
   <i type="logical" name="LSELFENERGY"> F  </i>
   <i type="logical" name="LSPECTRAL"> F  </i>
   <i type="logical" name="LSPECTRALGW"> F  </i>
   <i type="logical" name="LSINGLES"> F  </i>
   <i type="logical" name="LFERMIGW"> F  </i>
   <i type="logical" name="ODDONLYGW"> F  </i>
   <i type="logical" name="EVENONLYGW"> F  </i>
   <i type="int" name="NKREDLFX">     1</i>
   <i type="int" name="NKREDLFY">     1</i>
   <i type="int" name="NKREDLFZ">     1</i>
   <i type="int" name="MAXMEM">  2800</i>
   <i type="int" name="TELESCOPE">     0</i>
   <i type="int" name="NTAUPAR">    -1</i>
   <i type="int" name="NOMEGAPAR">    -1</i>
   <i name="DAMP_NEWTON">      0.80000001</i>
   <i name="LAMBDA">      1.00000000</i>
  </separator>
  <separator name="External order field" >
   <i name="OFIELD_KAPPA">      0.00000000</i>
   <v name="OFIELD_K">      0.00000000      0.00000000      0.00000000</v>
   <i name="OFIELD_Q6_NEAR">      0.00000000</i>
   <i name="OFIELD_Q6_FAR">      0.00000000</i>
   <i name="OFIELD_A">      0.00000000</i>
  </separator>
  <separator name="optional k-points parameters" >
   <i type="int" name="KPOINTS_OPT_MODE">     1</i>
   <i type="logical" name="LKPOINTS_OPT"> F  </i>
  </separator>
 </parameters>
 <atominfo>
  <atoms>       1 </atoms>
  <types>       1 </types>
  <array name="atoms" >
   <dimension dim="1">ion</dimension>
   <field type="string">element</field>
   <field type="int">atomtype</field>
   <set>
    <rc><c>Cr</c><c>   1</c></rc>
   </set>
  </array>
  <array name="atomtypes" >
   <dimension dim="1">type</dimension>
   <field type="int">atomspertype</field>
   <field type="string">element</field>
   <field>mass</field>
   <field>valence</field>
   <field type="string">pseudopotential</field>
   <set>
    <rc><c>   1</c><c>Cr</c><c>     51.99600000</c><c>      6.00000000</c><c>  PAW_PBE Cr 06Sep2000                  </c></rc>
   </set>
  </array>
 </atominfo>
 <structure name="initialpos" >
  <crystal>
   <varray name="basis" >
    <v>       2.48000000       0.00000000       0.00000000 </v>
    <v>       0.00000000       2.48000000       0.00000000 </v>
    <v>       0.00000000       0.00000000       2.48000000 </v>
   </varray>
   <i name="volume">     15.25299200 </i>
   <varray name="rec_basis" >
    <v>       0.40322581       0.00000000       0.00000000 </v>
    <v>       0.00000000       0.40322581       0.00000000 </v>
    <v>       0.00000000       0.00000000       0.40322581 </v>
   </varray>
  </crystal>
  <varray name="positions" >
   <v>       0.00000000       0.00000000       0.00000000 </v>
  </varray>
 </structure>
 <calculation>
  <scstep>
   <time name="dav">  248.22  496.48</time>
   <time name="total">  252.11  504.27</time>
   <energy>
    <i name="alphaZ">     27.09645045 </i>
    <i name="ewald">   -296.53896782 </i>
    <i name="hartreedc">    -43.91947793 </i>
    <i name="XCdc">    -16.34484621 </i>
    <i name="pawpsdc">    274.56471105 </i>
    <i name="pawaedc">   -255.13504988 </i>
    <i name="eentropy">     -0.00439717 </i>
    <i name="bandstr">     27.10184443 </i>
    <i name="atom">    276.88469247 </i>
    <i name="e_fr_energy">     -6.29504061 </i>
    <i name="e_wo_entrp">     -6.29064344 </i>
    <i name="e_0_energy">     -6.29284202 </i>
   </energy>
  </scstep>
  <scstep>
   <time name="dav">  229.67  459.37</time>
   <time name="total">  230.34  460.71</time>
   <energy>
    <i name="e_fr_energy">     -7.18404777 </i>
    <i name="e_wo_entrp">     -7.18012178 </i>
    <i name="e_0_energy">     -7.18208478 </i>
   </energy>
  </scstep>
  <scstep>
   <time name="dav">  260.34  520.72</time>
   <time name="total">  261.03  522.10</time>
   <energy>
    <i name="e_fr_energy">     -7.18429181 </i>
    <i name="e_wo_entrp">     -7.18036688 </i>
    <i name="e_0_energy">     -7.18232934 </i>
   </energy>
  </scstep>
  <scstep>
   <time name="dav">  233.56  467.15</time>
   <time name="total">  234.12  468.29</time>
   <energy>
    <i name="e_fr_energy">     -7.18429181 </i>
    <i name="e_wo_entrp">     -7.18036688 </i>
    <i name="e_0_energy">     -7.18232935 </i>
   </energy>
  </scstep>
  <scstep>
   <time name="dav">  249.21  498.45</time>
   <time name="total">  250.71  501.45</time>
   <energy>
    <i name="e_fr_energy">     -7.18429181 </i>
    <i name="e_wo_entrp">     -7.18036688 </i>
    <i name="e_0_energy">     -7.18232935 </i>
   </energy>
  </scstep>
  <scstep>
   <time name="dav">  237.58  475.19</time>
   <time name="total">  242.27  484.59</time>
   <energy>
    <i name="e_fr_energy">     -7.95277536 </i>
    <i name="e_wo_entrp">     -7.95080006 </i>
    <i name="e_0_energy">     -7.95178771 </i>
   </energy>
  </scstep>
  <scstep>
   <time name="dav">  242.11  484.27</time>
   <time name="total">  246.55  493.11</time>
   <energy>
    <i name="e_fr_energy">     -8.19892623 </i>
    <i name="e_wo_entrp">     -8.19471138 </i>
    <i name="e_0_energy">     -8.19681880 </i>
   </energy>
  </scstep>
  <scstep>
   <time name="dav">  250.23  500.50</time>
   <time name="total">  253.90  507.85</time>
   <energy>
    <i name="e_fr_energy">     -8.22887034 </i>
    <i name="e_wo_entrp">     -8.22552905 </i>
    <i name="e_0_energy">     -8.22719970 </i>
   </energy>
  </scstep>
  <scstep>
   <time name="dav">  236.92  473.88</time>
   <time name="total">  240.81  481.66</time>
   <energy>
    <i name="e_fr_energy">     -8.25255795 </i>
    <i name="e_wo_entrp">     -8.24878370 </i>
    <i name="e_0_energy">     -8.25067083 </i>
   </energy>
  </scstep>
  <scstep>
   <time name="dav">  257.66  515.38</time>
   <time name="total">  261.48  523.02</time>
   <energy>
    <i name="e_fr_energy">     -8.25463711 </i>
    <i name="e_wo_entrp">     -8.25149930 </i>
    <i name="e_0_energy">     -8.25306820 </i>
   </energy>
  </scstep>
  <scstep>
   <time name="dav">  242.40  484.83</time>
   <time name="total">  246.25  492.54</time>
   <energy>
    <i name="e_fr_energy">     -8.25508247 </i>
    <i name="e_wo_entrp">     -8.25190000 </i>
    <i name="e_0_energy">     -8.25349124 </i>
   </energy>
  </scstep>
  <scstep>
   <time name="dav">  255.01  510.06</time>
   <time name="total">  259.34  518.72</time>
   <energy>
    <i name="e_fr_energy">     -8.25598543 </i>
    <i name="e_wo_entrp">     -8.25360818 </i>
    <i name="e_0_energy">     -8.25479680 </i>
   </energy>
  </scstep>
  <scstep>
   <time name="dav">  231.82  463.67</time>
   <time name="total">  235.21  470.46</time>
   <energy>
    <i name="e_fr_energy">     -8.25636851 </i>
    <i name="e_wo_entrp">     -8.25422307 </i>
    <i name="e_0_energy">     -8.25529579 </i>
   </energy>
  </scstep>
  <scstep>
   <time name="dav">  247.63  495.30</time>
   <time name="total">  251.40  502.86</time>
   <energy>
    <i name="e_fr_energy">     -8.25672131 </i>
    <i name="e_wo_entrp">     -8.25407080 </i>
    <i name="e_0_energy">     -8.25539606 </i>
   </energy>
  </scstep>
  <scstep>
   <time name="dav">  245.02  490.07</time>
   <time name="total">  248.17  496.37</time>
   <energy>
    <i name="e_fr_energy">     -8.25678889 </i>
    <i name="e_wo_entrp">     -8.25446170 </i>
    <i name="e_0_energy">     -8.25562530 </i>
   </energy>
  </scstep>
  <scstep>
   <time name="dav">  238.33  476.69</time>
   <time name="total">  241.54  483.13</time>
   <energy>
    <i name="e_fr_energy">     -8.25682100 </i>
    <i name="e_wo_entrp">     -8.25450043 </i>
    <i name="e_0_energy">     -8.25566072 </i>
   </energy>
  </scstep>
  <scstep>
   <time name="dav">  243.67  487.38</time>
   <time name="total">  247.35  494.72</time>
   <energy>
    <i name="e_fr_energy">     -8.25682360 </i>
    <i name="e_wo_entrp">     -8.25447174 </i>
    <i name="e_0_energy">     -8.25564767 </i>
   </energy>
  </scstep>
  <scstep>
   <time name="dav">  198.90  397.84</time>
   <time name="total">  201.48  402.99</time>
   <energy>
    <i name="alphaZ">     27.09645045 </i>
    <i name="ewald">   -296.53896782 </i>
    <i name="hartreedc">    -34.26951661 </i>
    <i name="XCdc">    -20.01220463 </i>
    <i name="pawpsdc">    345.14057218 </i>
    <i name="pawaedc">   -325.10866525 </i>
    <i name="eentropy">     -0.00234089 </i>
    <i name="bandstr">     18.55315644 </i>
    <i name="atom">    276.88469247 </i>
    <i name="e_fr_energy">     -8.25682366 </i>
    <i name="e_wo_entrp">     -8.25448277 </i>
    <i name="e_0_energy">     -8.25565322 </i>
   </energy>
  </scstep>
  <structure>
   <crystal>
    <varray name="basis" >
     <v>       2.48000000       0.00000000       0.00000000 </v>
     <v>       0.00000000       2.48000000       0.00000000 </v>
     <v>       0.00000000       0.00000000       2.48000000 </v>
    </varray>
    <i name="volume">     15.25299200 </i>
    <varray name="rec_basis" >
     <v>       0.40322581       0.00000000       0.00000000 </v>
     <v>       0.00000000       0.40322581       0.00000000 </v>
     <v>       0.00000000       0.00000000       0.40322581 </v>
    </varray>
   </crystal>
   <varray name="positions" >
    <v>       0.00000000       0.00000000       0.00000000 </v>
   </varray>
  </structure>
  <varray name="forces" >
   <v>      -0.00000000       0.00000000      -0.00000000 </v>
  </varray>
  <varray name="stress" >
   <v>    -247.50361255       0.00000002       0.00000005 </v>
   <v>       0.00000000    -247.50361254      -0.00000005 </v>
   <v>       0.00000013      -0.00000005    -224.70474796 </v>
  </varray>
  <energy>
   <i name="e_fr_energy">     -8.25682366 </i>
   <i name="e_wo_entrp">     -8.25448277 </i>
   <i name="e_0_energy">     -8.25565322 </i>
  </energy>
  <time name="totalsc"> 4410.97 8822.66</time>
  <eigenvalues>
   <array>
    <dimension dim="1">band</dimension>
    <dimension dim="2">kpoint</dimension>
    <dimension dim="3">spin</dimension>
    <field>eigene</field>
    <field>occ</field>
    <set>
     <set comment="spin 1">
      <set comment="kpoint 1">
       <r>   -0.9130    1.0000 </r>
       <r>    2.6348    1.0000 </r>
       <r>    2.7614    1.0000 </r>
       <r>    6.3060    0.0000 </r>
       <r>    6.3258    0.0000 </r>
       <r>    6.5313    0.0000 </r>
       <r>   19.6785    0.0000 </r>
       <r>   21.2587    0.0000 </r>
       <r>   21.6645    0.0000 </r>
       <r>   28.5820    0.0000 </r>
       <r>   29.5785    0.0000 </r>
       <r>   33.2011    0.0000 </r>
       <r>   36.4065    0.0000 </r>
       <r>   37.2239    0.0000 </r>
       <r>   40.6992    0.0000 </r>
       <r>   43.1287    0.0000 </r>
       <r>   46.2519    0.0000 </r>
       <r>   47.8217    0.0000 </r>
       <r>   48.3047    0.0000 </r>
       <r>   49.3047    0.0000 </r>
       <r>   51.2488    0.0000 </r>
       <r>   52.3104    0.0000 </r>
       <r>   52.6289    0.0000 </r>
       <r>   54.2665    0.0000 </r>
       <r>   58.0497    0.0000 </r>
       <r>   59.0018    0.0000 </r>
       <r>   59.5192    0.0000 </r>
       <r>   59.6706    0.0000 </r>
       <r>   65.6800    0.0000 </r>
       <r>   69.3888    0.0000 </r>
       <r>   69.8620    0.0000 </r>
       <r>   71.4181    0.0000 </r>
       <r>   75.0179    0.0000 </r>
       <r>   76.7989    0.0000 </r>
       <r>   78.7514    0.0000 </r>
       <r>   88.3598    0.0000 </r>
       <r>   89.8849    0.0000 </r>
       <r>   91.9697    0.0000 </r>
       <r>   96.3030    0.0000 </r>
       <r>   97.7234    0.0000 </r>
       <r>   98.0555    0.0000 </r>
       <r>  100.5163    0.0000 </r>
      </set>
      <set comment="kpoint 2">
       <r>    0.3900    1.0000 </r>
       <r>    2.9680    1.0000 </r>
       <r>    3.4909    1.0000 </r>
       <r>    5.6625    0.0000 </r>
       <r>    5.9069    0.0000 </r>
       <r>    6.3991    0.0000 </r>
       <r>   15.7499    0.0000 </r>
       <r>   21.1832    0.0000 </r>
       <r>   22.9514    0.0000 </r>
       <r>   29.0628    0.0000 </r>
       <r>   31.5892    0.0000 </r>
       <r>   33.2345    0.0000 </r>
       <r>   34.3056    0.0000 </r>
       <r>   38.7206    0.0000 </r>
       <r>   39.5662    0.0000 </r>
       <r>   40.8293    0.0000 </r>
       <r>   44.8066    0.0000 </r>
       <r>   47.2425    0.0000 </r>
       <r>   50.3134    0.0000 </r>
       <r>   50.6795    0.0000 </r>
       <r>   51.8327    0.0000 </r>
       <r>   52.1603    0.0000 </r>
       <r>   55.2860    0.0000 </r>
       <r>   55.6711    0.0000 </r>
       <r>   56.9042    0.0000 </r>
       <r>   58.6219    0.0000 </r>
       <r>   61.7093    0.0000 </r>
       <r>   62.4934    0.0000 </r>
       <r>   64.9200    0.0000 </r>
       <r>   68.2507    0.0000 </r>
       <r>   69.9195    0.0000 </r>
       <r>   73.7330    0.0000 </r>
       <r>   76.3092    0.0000 </r>
       <r>   79.5595    0.0000 </r>
       <r>   82.6993    0.0000 </r>
       <r>   84.5793    0.0000 </r>
       <r>   87.6769    0.0000 </r>
       <r>   90.1247    0.0000 </r>
       <r>   90.8374    0.0000 </r>
       <r>   93.3298    0.0000 </r>
       <r>   96.1389    0.0000 </r>
       <r>   97.6275    0.0000 </r>
      </set>
      <set comment="kpoint 3">
       <r>    2.1717    1.0000 </r>
       <r>    3.2481    1.0000 </r>
       <r>    3.6208    1.0000 </r>
       <r>    5.0723    0.0633 </r>
       <r>    6.3867    0.0000 </r>
       <r>    6.4864    0.0000 </r>
       <r>   11.5104    0.0000 </r>
       <r>   23.1850    0.0000 </r>
       <r>   24.9869    0.0000 </r>
       <r>   27.4078    0.0000 </r>
       <r>   29.1866    0.0000 </r>
       <r>   32.7816    0.0000 </r>
       <r>   34.4250    0.0000 </r>
       <r>   36.3156    0.0000 </r>
       <r>   40.3839    0.0000 </r>
       <r>   42.3499    0.0000 </r>
       <r>   46.6907    0.0000 </r>
       <r>   48.3903    0.0000 </r>
       <r>   49.4725    0.0000 </r>
       <r>   50.3706    0.0000 </r>
       <r>   52.5695    0.0000 </r>
       <r>   53.5016    0.0000 </r>
       <r>   54.3469    0.0000 </r>
       <r>   56.9800    0.0000 </r>
       <r>   58.5367    0.0000 </r>
       <r>   59.4845    0.0000 </r>
       <r>   61.9430    0.0000 </r>
       <r>   62.5995    0.0000 </r>
       <r>   64.4875    0.0000 </r>
       <r>   71.0663    0.0000 </r>
       <r>   73.2982    0.0000 </r>
       <r>   74.1233    0.0000 </r>
       <r>   75.8271    0.0000 </r>
       <r>   78.6408    0.0000 </r>
       <r>   82.9675    0.0000 </r>
       <r>   83.6796    0.0000 </r>
       <r>   86.2280    0.0000 </r>
       <r>   87.5547    0.0000 </r>
       <r>   89.9970    0.0000 </r>
       <r>   90.6295    0.0000 </r>
       <r>   93.2281    0.0000 </r>
       <r>   94.9531    0.0000 </r>
      </set>
      <set comment="kpoint 4">
       <r>    2.1717    1.0000 </r>
       <r>    3.2481    1.0000 </r>
       <r>    3.6208    1.0000 </r>
       <r>    5.0723    0.0633 </r>
       <r>    6.3867    0.0000 </r>
       <r>    6.4864    0.0000 </r>
       <r>   11.5104    0.0000 </r>
       <r>   23.1850    0.0000 </r>
       <r>   24.9869    0.0000 </r>
       <r>   27.4078    0.0000 </r>
       <r>   29.1866    0.0000 </r>
       <r>   32.7816    0.0000 </r>
       <r>   34.4250    0.0000 </r>
       <r>   36.3156    0.0000 </r>
       <r>   40.3839    0.0000 </r>
       <r>   42.3499    0.0000 </r>
       <r>   46.6907    0.0000 </r>
       <r>   48.3903    0.0000 </r>
       <r>   49.4725    0.0000 </r>
       <r>   50.3706    0.0000 </r>
       <r>   52.5695    0.0000 </r>
       <r>   53.5016    0.0000 </r>
       <r>   54.3469    0.0000 </r>
       <r>   56.9800    0.0000 </r>
       <r>   58.5367    0.0000 </r>
       <r>   59.4845    0.0000 </r>
       <r>   61.9430    0.0000 </r>
       <r>   62.5995    0.0000 </r>
       <r>   64.4875    0.0000 </r>
       <r>   71.0663    0.0000 </r>
       <r>   73.2982    0.0000 </r>
       <r>   74.1233    0.0000 </r>
       <r>   75.8271    0.0000 </r>
       <r>   78.6408    0.0000 </r>
       <r>   82.9675    0.0000 </r>
       <r>   83.6796    0.0000 </r>
       <r>   86.2280    0.0000 </r>
       <r>   87.5547    0.0000 </r>
       <r>   89.9970    0.0000 </r>
       <r>   90.6295    0.0000 </r>
       <r>   93.2281    0.0000 </r>
       <r>   94.9531    0.0000 </r>
      </set>
      <set comment="kpoint 5">
       <r>    0.3900    1.0000 </r>
       <r>    2.9680    1.0000 </r>
       <r>    3.4909    1.0000 </r>
       <r>    5.6625    0.0000 </r>
       <r>    5.9069    0.0000 </r>
       <r>    6.3991    0.0000 </r>
       <r>   15.7499    0.0000 </r>
       <r>   21.1832    0.0000 </r>
       <r>   22.9514    0.0000 </r>
       <r>   29.0628    0.0000 </r>
       <r>   31.5892    0.0000 </r>
       <r>   33.2345    0.0000 </r>
       <r>   34.3056    0.0000 </r>
       <r>   38.7206    0.0000 </r>
       <r>   39.5662    0.0000 </r>
       <r>   40.8293    0.0000 </r>
       <r>   44.8066    0.0000 </r>
       <r>   47.2425    0.0000 </r>
       <r>   50.3134    0.0000 </r>
       <r>   50.6795    0.0000 </r>
       <r>   51.8327    0.0000 </r>
       <r>   52.1603    0.0000 </r>
       <r>   55.2860    0.0000 </r>
       <r>   55.6711    0.0000 </r>
       <r>   56.9042    0.0000 </r>
       <r>   58.6219    0.0000 </r>
       <r>   61.7093    0.0000 </r>
       <r>   62.4934    0.0000 </r>
       <r>   64.9200    0.0000 </r>
       <r>   68.2507    0.0000 </r>
       <r>   69.9195    0.0000 </r>
       <r>   73.7330    0.0000 </r>
       <r>   76.3092    0.0000 </r>
       <r>   79.5595    0.0000 </r>
       <r>   82.6993    0.0000 </r>
       <r>   84.5793    0.0000 </r>
       <r>   87.6769    0.0000 </r>
       <r>   90.1247    0.0000 </r>
       <r>   90.8374    0.0000 </r>
       <r>   93.3298    0.0000 </r>
       <r>   96.1389    0.0000 </r>
       <r>   97.6275    0.0000 </r>
      </set>
      <set comment="kpoint 6">
       <r>   -0.9130    1.0000 </r>
       <r>    2.6348    1.0000 </r>
       <r>    2.7614    1.0000 </r>
       <r>    6.3060    0.0000 </r>
       <r>    6.3258    0.0000 </r>
       <r>    6.5313    0.0000 </r>
       <r>   19.6785    0.0000 </r>
       <r>   21.2587    0.0000 </r>
       <r>   21.6645    0.0000 </r>
       <r>   28.5820    0.0000 </r>
       <r>   29.5785    0.0000 </r>
       <r>   33.2011    0.0000 </r>
       <r>   36.4065    0.0000 </r>
       <r>   37.2239    0.0000 </r>
       <r>   40.6992    0.0000 </r>
       <r>   43.1287    0.0000 </r>
       <r>   46.2519    0.0000 </r>
       <r>   47.8217    0.0000 </r>
       <r>   48.3047    0.0000 </r>
       <r>   49.3047    0.0000 </r>
       <r>   51.2488    0.0000 </r>
       <r>   52.3104    0.0000 </r>
       <r>   52.6289    0.0000 </r>
       <r>   54.2665    0.0000 </r>
       <r>   58.0497    0.0000 </r>
       <r>   59.0018    0.0000 </r>
       <r>   59.5192    0.0000 </r>
       <r>   59.6706    0.0000 </r>
       <r>   65.6800    0.0000 </r>
       <r>   69.3888    0.0000 </r>
       <r>   69.8620    0.0000 </r>
       <r>   71.4181    0.0000 </r>
       <r>   75.0179    0.0000 </r>
       <r>   76.7989    0.0000 </r>
       <r>   78.7514    0.0000 </r>
       <r>   88.3598    0.0000 </r>
       <r>   89.8849    0.0000 </r>
       <r>   91.9697    0.0000 </r>
       <r>   96.3030    0.0000 </r>
       <r>   97.7234    0.0000 </r>
       <r>   98.0555    0.0000 </r>
       <r>  100.5163    0.0000 </r>
      </set>
      <set comment="kpoint 7">
       <r>    0.3900    1.0000 </r>
       <r>    2.9680    1.0000 </r>
       <r>    3.4909    1.0000 </r>
       <r>    5.6625    0.0000 </r>
       <r>    5.9069    0.0000 </r>
       <r>    6.3991    0.0000 </r>
       <r>   15.7499    0.0000 </r>
       <r>   21.1832    0.0000 </r>
       <r>   22.9514    0.0000 </r>
       <r>   29.0628    0.0000 </r>
       <r>   31.5892    0.0000 </r>
       <r>   33.2345    0.0000 </r>
       <r>   34.3056    0.0000 </r>
       <r>   38.7206    0.0000 </r>
       <r>   39.5662    0.0000 </r>
       <r>   40.8293    0.0000 </r>
       <r>   44.8066    0.0000 </r>
       <r>   47.2425    0.0000 </r>
       <r>   50.3134    0.0000 </r>
       <r>   50.6795    0.0000 </r>
       <r>   51.8327    0.0000 </r>
       <r>   52.1603    0.0000 </r>
       <r>   55.2860    0.0000 </r>
       <r>   55.6711    0.0000 </r>
       <r>   56.9042    0.0000 </r>
       <r>   58.6219    0.0000 </r>
       <r>   61.7093    0.0000 </r>
       <r>   62.4934    0.0000 </r>
       <r>   64.9200    0.0000 </r>
       <r>   68.2507    0.0000 </r>
       <r>   69.9195    0.0000 </r>
       <r>   73.7330    0.0000 </r>
       <r>   76.3092    0.0000 </r>
       <r>   79.5595    0.0000 </r>
       <r>   82.6993    0.0000 </r>
       <r>   84.5793    0.0000 </r>
       <r>   87.6769    0.0000 </r>
       <r>   90.1247    0.0000 </r>
       <r>   90.8374    0.0000 </r>
       <r>   93.3298    0.0000 </r>
       <r>   96.1389    0.0000 </r>
       <r>   97.6275    0.0000 </r>
      </set>
      <set comment="kpoint 8">
       <r>    1.3976    1.0000 </r>
       <r>    3.4155    1.0000 </r>
       <r>    4.1192    1.0000 </r>
       <r>    5.2979    0.0000 </r>
       <r>    5.7589    0.0000 </r>
       <r>    6.0624    0.0000 </r>
       <r>   16.2182    0.0000 </r>
       <r>   18.0645    0.0000 </r>
       <r>   22.5118    0.0000 </r>
       <r>   28.0408    0.0000 </r>
       <r>   32.3037    0.0000 </r>
       <r>   32.6913    0.0000 </r>
       <r>   35.3654    0.0000 </r>
       <r>   36.8925    0.0000 </r>
       <r>   41.4829    0.0000 </r>
       <r>   41.6134    0.0000 </r>
       <r>   46.2382    0.0000 </r>
       <r>   47.8657    0.0000 </r>
       <r>   48.8438    0.0000 </r>
       <r>   50.9751    0.0000 </r>
       <r>   52.2467    0.0000 </r>
       <r>   52.2958    0.0000 </r>
       <r>   54.1890    0.0000 </r>
       <r>   56.6109    0.0000 </r>
       <r>   57.3532    0.0000 </r>
       <r>   59.2141    0.0000 </r>
       <r>   63.1487    0.0000 </r>
       <r>   65.2809    0.0000 </r>
       <r>   66.4351    0.0000 </r>
       <r>   71.0727    0.0000 </r>
       <r>   71.4311    0.0000 </r>
       <r>   74.0906    0.0000 </r>
       <r>   74.1687    0.0000 </r>
       <r>   79.4264    0.0000 </r>
       <r>   80.8164    0.0000 </r>
       <r>   83.6285    0.0000 </r>
       <r>   86.5867    0.0000 </r>
       <r>   87.9663    0.0000 </r>
       <r>   89.5219    0.0000 </r>
       <r>   89.9075    0.0000 </r>
       <r>   93.7672    0.0000 </r>
       <r>   94.5892    0.0000 </r>
      </set>
      <set comment="kpoint 9">
       <r>    2.3155    1.0000 </r>
       <r>    3.4673    1.0000 </r>
       <r>    4.5251    1.0000 </r>
       <r>    4.7739    1.0000 </r>
       <r>    5.8971    0.0000 </r>
       <r>    7.7213    0.0000 </r>
       <r>   12.1298    0.0000 </r>
       <r>   19.7041    0.0000 </r>
       <r>   23.7498    0.0000 </r>
       <r>   24.5463    0.0000 </r>
       <r>   29.0060    0.0000 </r>
       <r>   34.1828    0.0000 </r>
       <r>   35.6352    0.0000 </r>
       <r>   38.9709    0.0000 </r>
       <r>   40.2995    0.0000 </r>
       <r>   43.7974    0.0000 </r>
       <r>   45.8295    0.0000 </r>
       <r>   47.4748    0.0000 </r>
       <r>   49.7882    0.0000 </r>
       <r>   50.8153    0.0000 </r>
       <r>   52.4474    0.0000 </r>
       <r>   53.5308    0.0000 </r>
       <r>   56.0118    0.0000 </r>
       <r>   57.0823    0.0000 </r>
       <r>   59.2040    0.0000 </r>
       <r>   60.3474    0.0000 </r>
       <r>   63.7611    0.0000 </r>
       <r>   64.6095    0.0000 </r>
       <r>   68.8320    0.0000 </r>
       <r>   71.2591    0.0000 </r>
       <r>   71.6017    0.0000 </r>
       <r>   73.7678    0.0000 </r>
       <r>   75.8815    0.0000 </r>
       <r>   78.3995    0.0000 </r>
       <r>   80.1871    0.0000 </r>
       <r>   82.0390    0.0000 </r>
       <r>   83.3426    0.0000 </r>
       <r>   86.2041    0.0000 </r>
       <r>   88.4393    0.0000 </r>
       <r>   90.6620    0.0000 </r>
       <r>   90.9713    0.0000 </r>
       <r>   91.8210    0.0000 </r>
      </set>
      <set comment="kpoint 10">
       <r>    2.3155    1.0000 </r>
       <r>    3.4673    1.0000 </r>
       <r>    4.5251    1.0000 </r>
       <r>    4.7739    1.0000 </r>
       <r>    5.8971    0.0000 </r>
       <r>    7.7213    0.0000 </r>
       <r>   12.1298    0.0000 </r>
       <r>   19.7041    0.0000 </r>
       <r>   23.7498    0.0000 </r>
       <r>   24.5463    0.0000 </r>
       <r>   29.0060    0.0000 </r>
       <r>   34.1828    0.0000 </r>
       <r>   35.6352    0.0000 </r>
       <r>   38.9709    0.0000 </r>
       <r>   40.2995    0.0000 </r>
       <r>   43.7974    0.0000 </r>
       <r>   45.8295    0.0000 </r>
       <r>   47.4748    0.0000 </r>
       <r>   49.7882    0.0000 </r>
       <r>   50.8153    0.0000 </r>
       <r>   52.4474    0.0000 </r>
       <r>   53.5308    0.0000 </r>
       <r>   56.0118    0.0000 </r>
       <r>   57.0823    0.0000 </r>
       <r>   59.2040    0.0000 </r>
       <r>   60.3474    0.0000 </r>
       <r>   63.7611    0.0000 </r>
       <r>   64.6095    0.0000 </r>
       <r>   68.8320    0.0000 </r>
       <r>   71.2591    0.0000 </r>
       <r>   71.6017    0.0000 </r>
       <r>   73.7678    0.0000 </r>
       <r>   75.8815    0.0000 </r>
       <r>   78.3995    0.0000 </r>
       <r>   80.1871    0.0000 </r>
       <r>   82.0390    0.0000 </r>
       <r>   83.3426    0.0000 </r>
       <r>   86.2041    0.0000 </r>
       <r>   88.4393    0.0000 </r>
       <r>   90.6620    0.0000 </r>
       <r>   90.9713    0.0000 </r>
       <r>   91.8210    0.0000 </r>
      </set>
      <set comment="kpoint 11">
       <r>    1.3976    1.0000 </r>
       <r>    3.4155    1.0000 </r>
       <r>    4.1192    1.0000 </r>
       <r>    5.2979    0.0000 </r>
       <r>    5.7589    0.0000 </r>
       <r>    6.0624    0.0000 </r>
       <r>   16.2182    0.0000 </r>
       <r>   18.0645    0.0000 </r>
       <r>   22.5118    0.0000 </r>
       <r>   28.0408    0.0000 </r>
       <r>   32.3037    0.0000 </r>
       <r>   32.6913    0.0000 </r>
       <r>   35.3654    0.0000 </r>
       <r>   36.8925    0.0000 </r>
       <r>   41.4829    0.0000 </r>
       <r>   41.6134    0.0000 </r>
       <r>   46.2382    0.0000 </r>
       <r>   47.8657    0.0000 </r>
       <r>   48.8438    0.0000 </r>
       <r>   50.9751    0.0000 </r>
       <r>   52.2467    0.0000 </r>
       <r>   52.2958    0.0000 </r>
       <r>   54.1890    0.0000 </r>
       <r>   56.6109    0.0000 </r>
       <r>   57.3532    0.0000 </r>
       <r>   59.2141    0.0000 </r>
       <r>   63.1487    0.0000 </r>
       <r>   65.2809    0.0000 </r>
       <r>   66.4351    0.0000 </r>
       <r>   71.0727    0.0000 </r>
       <r>   71.4311    0.0000 </r>
       <r>   74.0906    0.0000 </r>
       <r>   74.1687    0.0000 </r>
       <r>   79.4264    0.0000 </r>
       <r>   80.8164    0.0000 </r>
       <r>   83.6285    0.0000 </r>
       <r>   86.5867    0.0000 </r>
       <r>   87.9663    0.0000 </r>
       <r>   89.5219    0.0000 </r>
       <r>   89.9075    0.0000 </r>
       <r>   93.7672    0.0000 </r>
       <r>   94.5892    0.0000 </r>
      </set>
      <set comment="kpoint 12">
       <r>    0.3900    1.0000 </r>
       <r>    2.9680    1.0000 </r>
       <r>    3.4909    1.0000 </r>
       <r>    5.6625    0.0000 </r>
       <r>    5.9069    0.0000 </r>
       <r>    6.3991    0.0000 </r>
       <r>   15.7499    0.0000 </r>
       <r>   21.1832    0.0000 </r>
       <r>   22.9514    0.0000 </r>
       <r>   29.0628    0.0000 </r>
       <r>   31.5892    0.0000 </r>
       <r>   33.2345    0.0000 </r>
       <r>   34.3056    0.0000 </r>
       <r>   38.7206    0.0000 </r>
       <r>   39.5662    0.0000 </r>
       <r>   40.8293    0.0000 </r>
       <r>   44.8066    0.0000 </r>
       <r>   47.2425    0.0000 </r>
       <r>   50.3134    0.0000 </r>
       <r>   50.6795    0.0000 </r>
       <r>   51.8327    0.0000 </r>
       <r>   52.1603    0.0000 </r>
       <r>   55.2860    0.0000 </r>
       <r>   55.6711    0.0000 </r>
       <r>   56.9042    0.0000 </r>
       <r>   58.6219    0.0000 </r>
       <r>   61.7093    0.0000 </r>
       <r>   62.4934    0.0000 </r>
       <r>   64.9200    0.0000 </r>
       <r>   68.2507    0.0000 </r>
       <r>   69.9195    0.0000 </r>
       <r>   73.7330    0.0000 </r>
       <r>   76.3092    0.0000 </r>
       <r>   79.5595    0.0000 </r>
       <r>   82.6993    0.0000 </r>
       <r>   84.5793    0.0000 </r>
       <r>   87.6769    0.0000 </r>
       <r>   90.1247    0.0000 </r>
       <r>   90.8374    0.0000 </r>
       <r>   93.3298    0.0000 </r>
       <r>   96.1389    0.0000 </r>
       <r>   97.6275    0.0000 </r>
      </set>
      <set comment="kpoint 13">
       <r>    2.1717    1.0000 </r>
       <r>    3.2481    1.0000 </r>
       <r>    3.6208    1.0000 </r>
       <r>    5.0723    0.0633 </r>
       <r>    6.3867    0.0000 </r>
       <r>    6.4864    0.0000 </r>
       <r>   11.5104    0.0000 </r>
       <r>   23.1850    0.0000 </r>
       <r>   24.9869    0.0000 </r>
       <r>   27.4078    0.0000 </r>
       <r>   29.1866    0.0000 </r>
       <r>   32.7816    0.0000 </r>
       <r>   34.4250    0.0000 </r>
       <r>   36.3156    0.0000 </r>
       <r>   40.3839    0.0000 </r>
       <r>   42.3499    0.0000 </r>
       <r>   46.6907    0.0000 </r>
       <r>   48.3903    0.0000 </r>
       <r>   49.4725    0.0000 </r>
       <r>   50.3706    0.0000 </r>
       <r>   52.5695    0.0000 </r>
       <r>   53.5016    0.0000 </r>
       <r>   54.3469    0.0000 </r>
       <r>   56.9800    0.0000 </r>
       <r>   58.5367    0.0000 </r>
       <r>   59.4845    0.0000 </r>
       <r>   61.9430    0.0000 </r>
       <r>   62.5995    0.0000 </r>
       <r>   64.4875    0.0000 </r>
       <r>   71.0663    0.0000 </r>
       <r>   73.2982    0.0000 </r>
       <r>   74.1233    0.0000 </r>
       <r>   75.8271    0.0000 </r>
       <r>   78.6408    0.0000 </r>
       <r>   82.9675    0.0000 </r>
       <r>   83.6796    0.0000 </r>
       <r>   86.2280    0.0000 </r>
       <r>   87.5547    0.0000 </r>
       <r>   89.9970    0.0000 </r>
       <r>   90.6295    0.0000 </r>
       <r>   93.2281    0.0000 </r>
       <r>   94.9531    0.0000 </r>
      </set>
      <set comment="kpoint 14">
       <r>    2.3155    1.0000 </r>
       <r>    3.4673    1.0000 </r>
       <r>    4.5251    1.0000 </r>
       <r>    4.7739    1.0000 </r>
       <r>    5.8971    0.0000 </r>
       <r>    7.7213    0.0000 </r>
       <r>   12.1298    0.0000 </r>
       <r>   19.7041    0.0000 </r>
       <r>   23.7498    0.0000 </r>
       <r>   24.5463    0.0000 </r>
       <r>   29.0060    0.0000 </r>
       <r>   34.1828    0.0000 </r>
       <r>   35.6352    0.0000 </r>
       <r>   38.9709    0.0000 </r>
       <r>   40.2995    0.0000 </r>
       <r>   43.7974    0.0000 </r>
       <r>   45.8295    0.0000 </r>
       <r>   47.4748    0.0000 </r>
       <r>   49.7882    0.0000 </r>
       <r>   50.8153    0.0000 </r>
       <r>   52.4474    0.0000 </r>
       <r>   53.5308    0.0000 </r>
       <r>   56.0118    0.0000 </r>
       <r>   57.0823    0.0000 </r>
       <r>   59.2040    0.0000 </r>
       <r>   60.3474    0.0000 </r>
       <r>   63.7611    0.0000 </r>
       <r>   64.6095    0.0000 </r>
       <r>   68.8320    0.0000 </r>
       <r>   71.2591    0.0000 </r>
       <r>   71.6017    0.0000 </r>
       <r>   73.7678    0.0000 </r>
       <r>   75.8815    0.0000 </r>
       <r>   78.3995    0.0000 </r>
       <r>   80.1871    0.0000 </r>
       <r>   82.0390    0.0000 </r>
       <r>   83.3426    0.0000 </r>
       <r>   86.2041    0.0000 </r>
       <r>   88.4393    0.0000 </r>
       <r>   90.6620    0.0000 </r>
       <r>   90.9713    0.0000 </r>
       <r>   91.8210    0.0000 </r>
      </set>
      <set comment="kpoint 15">
       <r>    1.7575    1.0000 </r>
       <r>    3.8104    1.0000 </r>
       <r>    4.8991    0.9996 </r>
       <r>    4.9050    0.9993 </r>
       <r>    6.9751    0.0000 </r>
       <r>    9.4723    0.0000 </r>
       <r>   12.0930    0.0000 </r>
       <r>   16.7724    0.0000 </r>
       <r>   19.4351    0.0000 </r>
       <r>   26.5795    0.0000 </r>
       <r>   29.7288    0.0000 </r>
       <r>   31.0696    0.0000 </r>
       <r>   36.8258    0.0000 </r>
       <r>   40.1296    0.0000 </r>
       <r>   40.1925    0.0000 </r>
       <r>   42.4590    0.0000 </r>
       <r>   47.9922    0.0000 </r>
       <r>   49.7776    0.0000 </r>
       <r>   51.3770    0.0000 </r>
       <r>   51.5271    0.0000 </r>
       <r>   52.3392    0.0000 </r>
       <r>   54.8369    0.0000 </r>
       <r>   56.9166    0.0000 </r>
       <r>   57.2014    0.0000 </r>
       <r>   60.3874    0.0000 </r>
       <r>   61.7948    0.0000 </r>
       <r>   64.7641    0.0000 </r>
       <r>   65.9166    0.0000 </r>
       <r>   67.8618    0.0000 </r>
       <r>   69.8324    0.0000 </r>
       <r>   70.8185    0.0000 </r>
       <r>   73.2846    0.0000 </r>
       <r>   76.5056    0.0000 </r>
       <r>   79.2177    0.0000 </r>
       <r>   79.5578    0.0000 </r>
       <r>   81.0718    0.0000 </r>
       <r>   82.1879    0.0000 </r>
       <r>   84.1503    0.0000 </r>
       <r>   85.5489    0.0000 </r>
       <r>   87.3605    0.0000 </r>
       <r>   88.6981    0.0000 </r>
       <r>   92.4138    0.0000 </r>
      </set>
      <set comment="kpoint 16">
       <r>    1.7575    1.0000 </r>
       <r>    3.8104    1.0000 </r>
       <r>    4.8991    0.9996 </r>
       <r>    4.9050    0.9993 </r>
       <r>    6.9751    0.0000 </r>
       <r>    9.4723    0.0000 </r>
       <r>   12.0930    0.0000 </r>
       <r>   16.7724    0.0000 </r>
       <r>   19.4351    0.0000 </r>
       <r>   26.5795    0.0000 </r>
       <r>   29.7288    0.0000 </r>
       <r>   31.0696    0.0000 </r>
       <r>   36.8258    0.0000 </r>
       <r>   40.1296    0.0000 </r>
       <r>   40.1925    0.0000 </r>
       <r>   42.4590    0.0000 </r>
       <r>   47.9922    0.0000 </r>
       <r>   49.7776    0.0000 </r>
       <r>   51.3770    0.0000 </r>
       <r>   51.5271    0.0000 </r>
       <r>   52.3392    0.0000 </r>
       <r>   54.8369    0.0000 </r>
       <r>   56.9166    0.0000 </r>
       <r>   57.2014    0.0000 </r>
       <r>   60.3874    0.0000 </r>
       <r>   61.7948    0.0000 </r>
       <r>   64.7641    0.0000 </r>
       <r>   65.9166    0.0000 </r>
       <r>   67.8618    0.0000 </r>
       <r>   69.8324    0.0000 </r>
       <r>   70.8185    0.0000 </r>
       <r>   73.2846    0.0000 </r>
       <r>   76.5056    0.0000 </r>
       <r>   79.2177    0.0000 </r>
       <r>   79.5578    0.0000 </r>
       <r>   81.0718    0.0000 </r>
       <r>   82.1879    0.0000 </r>
       <r>   84.1503    0.0000 </r>
       <r>   85.5489    0.0000 </r>
       <r>   87.3605    0.0000 </r>
       <r>   88.6981    0.0000 </r>
       <r>   92.4138    0.0000 </r>
      </set>
      <set comment="kpoint 17">
       <r>    2.3155    1.0000 </r>
       <r>    3.4673    1.0000 </r>
       <r>    4.5251    1.0000 </r>
       <r>    4.7739    1.0000 </r>
       <r>    5.8971    0.0000 </r>
       <r>    7.7213    0.0000 </r>
       <r>   12.1298    0.0000 </r>
       <r>   19.7041    0.0000 </r>
       <r>   23.7498    0.0000 </r>
       <r>   24.5463    0.0000 </r>
       <r>   29.0060    0.0000 </r>
       <r>   34.1828    0.0000 </r>
       <r>   35.6352    0.0000 </r>
       <r>   38.9709    0.0000 </r>
       <r>   40.2995    0.0000 </r>
       <r>   43.7974    0.0000 </r>
       <r>   45.8295    0.0000 </r>
       <r>   47.4748    0.0000 </r>
       <r>   49.7882    0.0000 </r>
       <r>   50.8153    0.0000 </r>
       <r>   52.4474    0.0000 </r>
       <r>   53.5308    0.0000 </r>
       <r>   56.0118    0.0000 </r>
       <r>   57.0823    0.0000 </r>
       <r>   59.2040    0.0000 </r>
       <r>   60.3474    0.0000 </r>
       <r>   63.7611    0.0000 </r>
       <r>   64.6095    0.0000 </r>
       <r>   68.8320    0.0000 </r>
       <r>   71.2591    0.0000 </r>
       <r>   71.6017    0.0000 </r>
       <r>   73.7678    0.0000 </r>
       <r>   75.8815    0.0000 </r>
       <r>   78.3995    0.0000 </r>
       <r>   80.1871    0.0000 </r>
       <r>   82.0390    0.0000 </r>
       <r>   83.3426    0.0000 </r>
       <r>   86.2041    0.0000 </r>
       <r>   88.4393    0.0000 </r>
       <r>   90.6620    0.0000 </r>
       <r>   90.9713    0.0000 </r>
       <r>   91.8210    0.0000 </r>
      </set>
      <set comment="kpoint 18">
       <r>    2.1717    1.0000 </r>
       <r>    3.2481    1.0000 </r>
       <r>    3.6208    1.0000 </r>
       <r>    5.0723    0.0633 </r>
       <r>    6.3867    0.0000 </r>
       <r>    6.4864    0.0000 </r>
       <r>   11.5104    0.0000 </r>
       <r>   23.1850    0.0000 </r>
       <r>   24.9869    0.0000 </r>
       <r>   27.4078    0.0000 </r>
       <r>   29.1866    0.0000 </r>
       <r>   32.7816    0.0000 </r>
       <r>   34.4250    0.0000 </r>
       <r>   36.3156    0.0000 </r>
       <r>   40.3839    0.0000 </r>
       <r>   42.3499    0.0000 </r>
       <r>   46.6907    0.0000 </r>
       <r>   48.3903    0.0000 </r>
       <r>   49.4725    0.0000 </r>
       <r>   50.3706    0.0000 </r>
       <r>   52.5695    0.0000 </r>
       <r>   53.5016    0.0000 </r>
       <r>   54.3469    0.0000 </r>
       <r>   56.9800    0.0000 </r>
       <r>   58.5367    0.0000 </r>
       <r>   59.4845    0.0000 </r>
       <r>   61.9430    0.0000 </r>
       <r>   62.5995    0.0000 </r>
       <r>   64.4875    0.0000 </r>
       <r>   71.0663    0.0000 </r>
       <r>   73.2982    0.0000 </r>
       <r>   74.1233    0.0000 </r>
       <r>   75.8271    0.0000 </r>
       <r>   78.6408    0.0000 </r>
       <r>   82.9675    0.0000 </r>
       <r>   83.6796    0.0000 </r>
       <r>   86.2280    0.0000 </r>
       <r>   87.5547    0.0000 </r>
       <r>   89.9970    0.0000 </r>
       <r>   90.6295    0.0000 </r>
       <r>   93.2281    0.0000 </r>
       <r>   94.9531    0.0000 </r>
      </set>
      <set comment="kpoint 19">
       <r>    2.1717    1.0000 </r>
       <r>    3.2481    1.0000 </r>
       <r>    3.6208    1.0000 </r>
       <r>    5.0723    0.0633 </r>
       <r>    6.3867    0.0000 </r>
       <r>    6.4864    0.0000 </r>
       <r>   11.5104    0.0000 </r>
       <r>   23.1850    0.0000 </r>
       <r>   24.9869    0.0000 </r>
       <r>   27.4078    0.0000 </r>
       <r>   29.1866    0.0000 </r>
       <r>   32.7816    0.0000 </r>
       <r>   34.4250    0.0000 </r>
       <r>   36.3156    0.0000 </r>
       <r>   40.3839    0.0000 </r>
       <r>   42.3499    0.0000 </r>
       <r>   46.6907    0.0000 </r>
       <r>   48.3903    0.0000 </r>
       <r>   49.4725    0.0000 </r>
       <r>   50.3706    0.0000 </r>
       <r>   52.5695    0.0000 </r>
       <r>   53.5016    0.0000 </r>
       <r>   54.3469    0.0000 </r>
       <r>   56.9800    0.0000 </r>
       <r>   58.5367    0.0000 </r>
       <r>   59.4845    0.0000 </r>
       <r>   61.9430    0.0000 </r>
       <r>   62.5995    0.0000 </r>
       <r>   64.4875    0.0000 </r>
       <r>   71.0663    0.0000 </r>
       <r>   73.2982    0.0000 </r>
       <r>   74.1233    0.0000 </r>
       <r>   75.8271    0.0000 </r>
       <r>   78.6408    0.0000 </r>
       <r>   82.9675    0.0000 </r>
       <r>   83.6796    0.0000 </r>
       <r>   86.2280    0.0000 </r>
       <r>   87.5547    0.0000 </r>
       <r>   89.9970    0.0000 </r>
       <r>   90.6295    0.0000 </r>
       <r>   93.2281    0.0000 </r>
       <r>   94.9531    0.0000 </r>
      </set>
      <set comment="kpoint 20">
       <r>    2.3155    1.0000 </r>
       <r>    3.4673    1.0000 </r>
       <r>    4.5251    1.0000 </r>
       <r>    4.7739    1.0000 </r>
       <r>    5.8971    0.0000 </r>
       <r>    7.7213    0.0000 </r>
       <r>   12.1298    0.0000 </r>
       <r>   19.7041    0.0000 </r>
       <r>   23.7498    0.0000 </r>
       <r>   24.5463    0.0000 </r>
       <r>   29.0060    0.0000 </r>
       <r>   34.1828    0.0000 </r>
       <r>   35.6352    0.0000 </r>
       <r>   38.9709    0.0000 </r>
       <r>   40.2995    0.0000 </r>
       <r>   43.7974    0.0000 </r>
       <r>   45.8295    0.0000 </r>
       <r>   47.4748    0.0000 </r>
       <r>   49.7882    0.0000 </r>
       <r>   50.8153    0.0000 </r>
       <r>   52.4474    0.0000 </r>
       <r>   53.5308    0.0000 </r>
       <r>   56.0118    0.0000 </r>
       <r>   57.0823    0.0000 </r>
       <r>   59.2040    0.0000 </r>
       <r>   60.3474    0.0000 </r>
       <r>   63.7611    0.0000 </r>
       <r>   64.6095    0.0000 </r>
       <r>   68.8320    0.0000 </r>
       <r>   71.2591    0.0000 </r>
       <r>   71.6017    0.0000 </r>
       <r>   73.7678    0.0000 </r>
       <r>   75.8815    0.0000 </r>
       <r>   78.3995    0.0000 </r>
       <r>   80.1871    0.0000 </r>
       <r>   82.0390    0.0000 </r>
       <r>   83.3426    0.0000 </r>
       <r>   86.2041    0.0000 </r>
       <r>   88.4393    0.0000 </r>
       <r>   90.6620    0.0000 </r>
       <r>   90.9713    0.0000 </r>
       <r>   91.8210    0.0000 </r>
      </set>
      <set comment="kpoint 21">
       <r>    1.7575    1.0000 </r>
       <r>    3.8104    1.0000 </r>
       <r>    4.8991    0.9996 </r>
       <r>    4.9050    0.9993 </r>
       <r>    6.9751    0.0000 </r>
       <r>    9.4723    0.0000 </r>
       <r>   12.0930    0.0000 </r>
       <r>   16.7724    0.0000 </r>
       <r>   19.4351    0.0000 </r>
       <r>   26.5795    0.0000 </r>
       <r>   29.7288    0.0000 </r>
       <r>   31.0696    0.0000 </r>
       <r>   36.8258    0.0000 </r>
       <r>   40.1296    0.0000 </r>
       <r>   40.1925    0.0000 </r>
       <r>   42.4590    0.0000 </r>
       <r>   47.9922    0.0000 </r>
       <r>   49.7776    0.0000 </r>
       <r>   51.3770    0.0000 </r>
       <r>   51.5271    0.0000 </r>
       <r>   52.3392    0.0000 </r>
       <r>   54.8369    0.0000 </r>
       <r>   56.9166    0.0000 </r>
       <r>   57.2014    0.0000 </r>
       <r>   60.3874    0.0000 </r>
       <r>   61.7948    0.0000 </r>
       <r>   64.7641    0.0000 </r>
       <r>   65.9166    0.0000 </r>
       <r>   67.8618    0.0000 </r>
       <r>   69.8324    0.0000 </r>
       <r>   70.8185    0.0000 </r>
       <r>   73.2846    0.0000 </r>
       <r>   76.5056    0.0000 </r>
       <r>   79.2177    0.0000 </r>
       <r>   79.5578    0.0000 </r>
       <r>   81.0718    0.0000 </r>
       <r>   82.1879    0.0000 </r>
       <r>   84.1503    0.0000 </r>
       <r>   85.5489    0.0000 </r>
       <r>   87.3605    0.0000 </r>
       <r>   88.6981    0.0000 </r>
       <r>   92.4138    0.0000 </r>
      </set>
      <set comment="kpoint 22">
       <r>    1.7575    1.0000 </r>
       <r>    3.8104    1.0000 </r>
       <r>    4.8991    0.9996 </r>
       <r>    4.9050    0.9993 </r>
       <r>    6.9751    0.0000 </r>
       <r>    9.4723    0.0000 </r>
       <r>   12.0930    0.0000 </r>
       <r>   16.7724    0.0000 </r>
       <r>   19.4351    0.0000 </r>
       <r>   26.5795    0.0000 </r>
       <r>   29.7288    0.0000 </r>
       <r>   31.0696    0.0000 </r>
       <r>   36.8258    0.0000 </r>
       <r>   40.1296    0.0000 </r>
       <r>   40.1925    0.0000 </r>
       <r>   42.4590    0.0000 </r>
       <r>   47.9922    0.0000 </r>
       <r>   49.7776    0.0000 </r>
       <r>   51.3770    0.0000 </r>
       <r>   51.5271    0.0000 </r>
       <r>   52.3392    0.0000 </r>
       <r>   54.8369    0.0000 </r>
       <r>   56.9166    0.0000 </r>
       <r>   57.2014    0.0000 </r>
       <r>   60.3874    0.0000 </r>
       <r>   61.7948    0.0000 </r>
       <r>   64.7641    0.0000 </r>
       <r>   65.9166    0.0000 </r>
       <r>   67.8618    0.0000 </r>
       <r>   69.8324    0.0000 </r>
       <r>   70.8185    0.0000 </r>
       <r>   73.2846    0.0000 </r>
       <r>   76.5056    0.0000 </r>
       <r>   79.2177    0.0000 </r>
       <r>   79.5578    0.0000 </r>
       <r>   81.0718    0.0000 </r>
       <r>   82.1879    0.0000 </r>
       <r>   84.1503    0.0000 </r>
       <r>   85.5489    0.0000 </r>
       <r>   87.3605    0.0000 </r>
       <r>   88.6981    0.0000 </r>
       <r>   92.4138    0.0000 </r>
      </set>
      <set comment="kpoint 23">
       <r>    2.3155    1.0000 </r>
       <r>    3.4673    1.0000 </r>
       <r>    4.5251    1.0000 </r>
       <r>    4.7739    1.0000 </r>
       <r>    5.8971    0.0000 </r>
       <r>    7.7213    0.0000 </r>
       <r>   12.1298    0.0000 </r>
       <r>   19.7041    0.0000 </r>
       <r>   23.7498    0.0000 </r>
       <r>   24.5463    0.0000 </r>
       <r>   29.0060    0.0000 </r>
       <r>   34.1828    0.0000 </r>
       <r>   35.6352    0.0000 </r>
       <r>   38.9709    0.0000 </r>
       <r>   40.2995    0.0000 </r>
       <r>   43.7974    0.0000 </r>
       <r>   45.8295    0.0000 </r>
       <r>   47.4748    0.0000 </r>
       <r>   49.7882    0.0000 </r>
       <r>   50.8153    0.0000 </r>
       <r>   52.4474    0.0000 </r>
       <r>   53.5308    0.0000 </r>
       <r>   56.0118    0.0000 </r>
       <r>   57.0823    0.0000 </r>
       <r>   59.2040    0.0000 </r>
       <r>   60.3474    0.0000 </r>
       <r>   63.7611    0.0000 </r>
       <r>   64.6095    0.0000 </r>
       <r>   68.8320    0.0000 </r>
       <r>   71.2591    0.0000 </r>
       <r>   71.6017    0.0000 </r>
       <r>   73.7678    0.0000 </r>
       <r>   75.8815    0.0000 </r>
       <r>   78.3995    0.0000 </r>
       <r>   80.1871    0.0000 </r>
       <r>   82.0390    0.0000 </r>
       <r>   83.3426    0.0000 </r>
       <r>   86.2041    0.0000 </r>
       <r>   88.4393    0.0000 </r>
       <r>   90.6620    0.0000 </r>
       <r>   90.9713    0.0000 </r>
       <r>   91.8210    0.0000 </r>
      </set>
      <set comment="kpoint 24">
       <r>    2.1717    1.0000 </r>
       <r>    3.2481    1.0000 </r>
       <r>    3.6208    1.0000 </r>
       <r>    5.0723    0.0633 </r>
       <r>    6.3867    0.0000 </r>
       <r>    6.4864    0.0000 </r>
       <r>   11.5104    0.0000 </r>
       <r>   23.1850    0.0000 </r>
       <r>   24.9869    0.0000 </r>
       <r>   27.4078    0.0000 </r>
       <r>   29.1866    0.0000 </r>
       <r>   32.7816    0.0000 </r>
       <r>   34.4250    0.0000 </r>
       <r>   36.3156    0.0000 </r>
       <r>   40.3839    0.0000 </r>
       <r>   42.3499    0.0000 </r>
       <r>   46.6907    0.0000 </r>
       <r>   48.3903    0.0000 </r>
       <r>   49.4725    0.0000 </r>
       <r>   50.3706    0.0000 </r>
       <r>   52.5695    0.0000 </r>
       <r>   53.5016    0.0000 </r>
       <r>   54.3469    0.0000 </r>
       <r>   56.9800    0.0000 </r>
       <r>   58.5367    0.0000 </r>
       <r>   59.4845    0.0000 </r>
       <r>   61.9430    0.0000 </r>
       <r>   62.5995    0.0000 </r>
       <r>   64.4875    0.0000 </r>
       <r>   71.0663    0.0000 </r>
       <r>   73.2982    0.0000 </r>
       <r>   74.1233    0.0000 </r>
       <r>   75.8271    0.0000 </r>
       <r>   78.6408    0.0000 </r>
       <r>   82.9675    0.0000 </r>
       <r>   83.6796    0.0000 </r>
       <r>   86.2280    0.0000 </r>
       <r>   87.5547    0.0000 </r>
       <r>   89.9970    0.0000 </r>
       <r>   90.6295    0.0000 </r>
       <r>   93.2281    0.0000 </r>
       <r>   94.9531    0.0000 </r>
      </set>
      <set comment="kpoint 25">
       <r>    0.3900    1.0000 </r>
       <r>    2.9680    1.0000 </r>
       <r>    3.4909    1.0000 </r>
       <r>    5.6625    0.0000 </r>
       <r>    5.9069    0.0000 </r>
       <r>    6.3991    0.0000 </r>
       <r>   15.7499    0.0000 </r>
       <r>   21.1832    0.0000 </r>
       <r>   22.9514    0.0000 </r>
       <r>   29.0628    0.0000 </r>
       <r>   31.5892    0.0000 </r>
       <r>   33.2345    0.0000 </r>
       <r>   34.3056    0.0000 </r>
       <r>   38.7206    0.0000 </r>
       <r>   39.5662    0.0000 </r>
       <r>   40.8293    0.0000 </r>
       <r>   44.8066    0.0000 </r>
       <r>   47.2425    0.0000 </r>
       <r>   50.3134    0.0000 </r>
       <r>   50.6795    0.0000 </r>
       <r>   51.8327    0.0000 </r>
       <r>   52.1603    0.0000 </r>
       <r>   55.2860    0.0000 </r>
       <r>   55.6711    0.0000 </r>
       <r>   56.9042    0.0000 </r>
       <r>   58.6219    0.0000 </r>
       <r>   61.7093    0.0000 </r>
       <r>   62.4934    0.0000 </r>
       <r>   64.9200    0.0000 </r>
       <r>   68.2507    0.0000 </r>
       <r>   69.9195    0.0000 </r>
       <r>   73.7330    0.0000 </r>
       <r>   76.3092    0.0000 </r>
       <r>   79.5595    0.0000 </r>
       <r>   82.6993    0.0000 </r>
       <r>   84.5793    0.0000 </r>
       <r>   87.6769    0.0000 </r>
       <r>   90.1247    0.0000 </r>
       <r>   90.8374    0.0000 </r>
       <r>   93.3298    0.0000 </r>
       <r>   96.1389    0.0000 </r>
       <r>   97.6275    0.0000 </r>
      </set>
      <set comment="kpoint 26">
       <r>    1.3976    1.0000 </r>
       <r>    3.4155    1.0000 </r>
       <r>    4.1192    1.0000 </r>
       <r>    5.2979    0.0000 </r>
       <r>    5.7589    0.0000 </r>
       <r>    6.0624    0.0000 </r>
       <r>   16.2182    0.0000 </r>
       <r>   18.0645    0.0000 </r>
       <r>   22.5118    0.0000 </r>
       <r>   28.0408    0.0000 </r>
       <r>   32.3037    0.0000 </r>
       <r>   32.6913    0.0000 </r>
       <r>   35.3654    0.0000 </r>
       <r>   36.8925    0.0000 </r>
       <r>   41.4829    0.0000 </r>
       <r>   41.6134    0.0000 </r>
       <r>   46.2382    0.0000 </r>
       <r>   47.8657    0.0000 </r>
       <r>   48.8438    0.0000 </r>
       <r>   50.9751    0.0000 </r>
       <r>   52.2467    0.0000 </r>
       <r>   52.2958    0.0000 </r>
       <r>   54.1890    0.0000 </r>
       <r>   56.6109    0.0000 </r>
       <r>   57.3532    0.0000 </r>
       <r>   59.2141    0.0000 </r>
       <r>   63.1487    0.0000 </r>
       <r>   65.2809    0.0000 </r>
       <r>   66.4351    0.0000 </r>
       <r>   71.0727    0.0000 </r>
       <r>   71.4311    0.0000 </r>
       <r>   74.0906    0.0000 </r>
       <r>   74.1687    0.0000 </r>
       <r>   79.4264    0.0000 </r>
       <r>   80.8164    0.0000 </r>
       <r>   83.6285    0.0000 </r>
       <r>   86.5867    0.0000 </r>
       <r>   87.9663    0.0000 </r>
       <r>   89.5219    0.0000 </r>
       <r>   89.9075    0.0000 </r>
       <r>   93.7672    0.0000 </r>
       <r>   94.5892    0.0000 </r>
      </set>
      <set comment="kpoint 27">
       <r>    2.3155    1.0000 </r>
       <r>    3.4673    1.0000 </r>
       <r>    4.5251    1.0000 </r>
       <r>    4.7739    1.0000 </r>
       <r>    5.8971    0.0000 </r>
       <r>    7.7213    0.0000 </r>
       <r>   12.1298    0.0000 </r>
       <r>   19.7041    0.0000 </r>
       <r>   23.7498    0.0000 </r>
       <r>   24.5463    0.0000 </r>
       <r>   29.0060    0.0000 </r>
       <r>   34.1828    0.0000 </r>
       <r>   35.6352    0.0000 </r>
       <r>   38.9709    0.0000 </r>
       <r>   40.2995    0.0000 </r>
       <r>   43.7974    0.0000 </r>
       <r>   45.8295    0.0000 </r>
       <r>   47.4748    0.0000 </r>
       <r>   49.7882    0.0000 </r>
       <r>   50.8153    0.0000 </r>
       <r>   52.4474    0.0000 </r>
       <r>   53.5308    0.0000 </r>
       <r>   56.0118    0.0000 </r>
       <r>   57.0823    0.0000 </r>
       <r>   59.2040    0.0000 </r>
       <r>   60.3474    0.0000 </r>
       <r>   63.7611    0.0000 </r>
       <r>   64.6095    0.0000 </r>
       <r>   68.8320    0.0000 </r>
       <r>   71.2591    0.0000 </r>
       <r>   71.6017    0.0000 </r>
       <r>   73.7678    0.0000 </r>
       <r>   75.8815    0.0000 </r>
       <r>   78.3995    0.0000 </r>
       <r>   80.1871    0.0000 </r>
       <r>   82.0390    0.0000 </r>
       <r>   83.3426    0.0000 </r>
       <r>   86.2041    0.0000 </r>
       <r>   88.4393    0.0000 </r>
       <r>   90.6620    0.0000 </r>
       <r>   90.9713    0.0000 </r>
       <r>   91.8210    0.0000 </r>
      </set>
      <set comment="kpoint 28">
       <r>    2.3155    1.0000 </r>
       <r>    3.4673    1.0000 </r>
       <r>    4.5251    1.0000 </r>
       <r>    4.7739    1.0000 </r>
       <r>    5.8971    0.0000 </r>
       <r>    7.7213    0.0000 </r>
       <r>   12.1298    0.0000 </r>
       <r>   19.7041    0.0000 </r>
       <r>   23.7498    0.0000 </r>
       <r>   24.5463    0.0000 </r>
       <r>   29.0060    0.0000 </r>
       <r>   34.1828    0.0000 </r>
       <r>   35.6352    0.0000 </r>
       <r>   38.9709    0.0000 </r>
       <r>   40.2995    0.0000 </r>
       <r>   43.7974    0.0000 </r>
       <r>   45.8295    0.0000 </r>
       <r>   47.4748    0.0000 </r>
       <r>   49.7882    0.0000 </r>
       <r>   50.8153    0.0000 </r>
       <r>   52.4474    0.0000 </r>
       <r>   53.5308    0.0000 </r>
       <r>   56.0118    0.0000 </r>
       <r>   57.0823    0.0000 </r>
       <r>   59.2040    0.0000 </r>
       <r>   60.3474    0.0000 </r>
       <r>   63.7611    0.0000 </r>
       <r>   64.6095    0.0000 </r>
       <r>   68.8320    0.0000 </r>
       <r>   71.2591    0.0000 </r>
       <r>   71.6017    0.0000 </r>
       <r>   73.7678    0.0000 </r>
       <r>   75.8815    0.0000 </r>
       <r>   78.3995    0.0000 </r>
       <r>   80.1871    0.0000 </r>
       <r>   82.0390    0.0000 </r>
       <r>   83.3426    0.0000 </r>
       <r>   86.2041    0.0000 </r>
       <r>   88.4393    0.0000 </r>
       <r>   90.6620    0.0000 </r>
       <r>   90.9713    0.0000 </r>
       <r>   91.8210    0.0000 </r>
      </set>
      <set comment="kpoint 29">
       <r>    1.3976    1.0000 </r>
       <r>    3.4155    1.0000 </r>
       <r>    4.1192    1.0000 </r>
       <r>    5.2979    0.0000 </r>
       <r>    5.7589    0.0000 </r>
       <r>    6.0624    0.0000 </r>
       <r>   16.2182    0.0000 </r>
       <r>   18.0645    0.0000 </r>
       <r>   22.5118    0.0000 </r>
       <r>   28.0408    0.0000 </r>
       <r>   32.3037    0.0000 </r>
       <r>   32.6913    0.0000 </r>
       <r>   35.3654    0.0000 </r>
       <r>   36.8925    0.0000 </r>
       <r>   41.4829    0.0000 </r>
       <r>   41.6134    0.0000 </r>
       <r>   46.2382    0.0000 </r>
       <r>   47.8657    0.0000 </r>
       <r>   48.8438    0.0000 </r>
       <r>   50.9751    0.0000 </r>
       <r>   52.2467    0.0000 </r>
       <r>   52.2958    0.0000 </r>
       <r>   54.1890    0.0000 </r>
       <r>   56.6109    0.0000 </r>
       <r>   57.3532    0.0000 </r>
       <r>   59.2141    0.0000 </r>
       <r>   63.1487    0.0000 </r>
       <r>   65.2809    0.0000 </r>
       <r>   66.4351    0.0000 </r>
       <r>   71.0727    0.0000 </r>
       <r>   71.4311    0.0000 </r>
       <r>   74.0906    0.0000 </r>
       <r>   74.1687    0.0000 </r>
       <r>   79.4264    0.0000 </r>
       <r>   80.8164    0.0000 </r>
       <r>   83.6285    0.0000 </r>
       <r>   86.5867    0.0000 </r>
       <r>   87.9663    0.0000 </r>
       <r>   89.5219    0.0000 </r>
       <r>   89.9075    0.0000 </r>
       <r>   93.7672    0.0000 </r>
       <r>   94.5892    0.0000 </r>
      </set>
      <set comment="kpoint 30">
       <r>    0.3900    1.0000 </r>
       <r>    2.9680    1.0000 </r>
       <r>    3.4909    1.0000 </r>
       <r>    5.6625    0.0000 </r>
       <r>    5.9069    0.0000 </r>
       <r>    6.3991    0.0000 </r>
       <r>   15.7499    0.0000 </r>
       <r>   21.1832    0.0000 </r>
       <r>   22.9514    0.0000 </r>
       <r>   29.0628    0.0000 </r>
       <r>   31.5892    0.0000 </r>
       <r>   33.2345    0.0000 </r>
       <r>   34.3056    0.0000 </r>
       <r>   38.7206    0.0000 </r>
       <r>   39.5662    0.0000 </r>
       <r>   40.8293    0.0000 </r>
       <r>   44.8066    0.0000 </r>
       <r>   47.2425    0.0000 </r>
       <r>   50.3134    0.0000 </r>
       <r>   50.6795    0.0000 </r>
       <r>   51.8327    0.0000 </r>
       <r>   52.1603    0.0000 </r>
       <r>   55.2860    0.0000 </r>
       <r>   55.6711    0.0000 </r>
       <r>   56.9042    0.0000 </r>
       <r>   58.6219    0.0000 </r>
       <r>   61.7093    0.0000 </r>
       <r>   62.4934    0.0000 </r>
       <r>   64.9200    0.0000 </r>
       <r>   68.2507    0.0000 </r>
       <r>   69.9195    0.0000 </r>
       <r>   73.7330    0.0000 </r>
       <r>   76.3092    0.0000 </r>
       <r>   79.5595    0.0000 </r>
       <r>   82.6993    0.0000 </r>
       <r>   84.5793    0.0000 </r>
       <r>   87.6769    0.0000 </r>
       <r>   90.1247    0.0000 </r>
       <r>   90.8374    0.0000 </r>
       <r>   93.3298    0.0000 </r>
       <r>   96.1389    0.0000 </r>
       <r>   97.6275    0.0000 </r>
      </set>
      <set comment="kpoint 31">
       <r>   -0.9130    1.0000 </r>
       <r>    2.6348    1.0000 </r>
       <r>    2.7614    1.0000 </r>
       <r>    6.3060    0.0000 </r>
       <r>    6.3258    0.0000 </r>
       <r>    6.5313    0.0000 </r>
       <r>   19.6785    0.0000 </r>
       <r>   21.2587    0.0000 </r>
       <r>   21.6645    0.0000 </r>
       <r>   28.5820    0.0000 </r>
       <r>   29.5785    0.0000 </r>
       <r>   33.2011    0.0000 </r>
       <r>   36.4065    0.0000 </r>
       <r>   37.2239    0.0000 </r>
       <r>   40.6992    0.0000 </r>
       <r>   43.1287    0.0000 </r>
       <r>   46.2519    0.0000 </r>
       <r>   47.8217    0.0000 </r>
       <r>   48.3047    0.0000 </r>
       <r>   49.3047    0.0000 </r>
       <r>   51.2488    0.0000 </r>
       <r>   52.3104    0.0000 </r>
       <r>   52.6289    0.0000 </r>
       <r>   54.2665    0.0000 </r>
       <r>   58.0497    0.0000 </r>
       <r>   59.0018    0.0000 </r>
       <r>   59.5192    0.0000 </r>
       <r>   59.6706    0.0000 </r>
       <r>   65.6800    0.0000 </r>
       <r>   69.3888    0.0000 </r>
       <r>   69.8620    0.0000 </r>
       <r>   71.4181    0.0000 </r>
       <r>   75.0179    0.0000 </r>
       <r>   76.7989    0.0000 </r>
       <r>   78.7514    0.0000 </r>
       <r>   88.3598    0.0000 </r>
       <r>   89.8849    0.0000 </r>
       <r>   91.9697    0.0000 </r>
       <r>   96.3030    0.0000 </r>
       <r>   97.7234    0.0000 </r>
       <r>   98.0555    0.0000 </r>
       <r>  100.5163    0.0000 </r>
      </set>
      <set comment="kpoint 32">
       <r>    0.3900    1.0000 </r>
       <r>    2.9680    1.0000 </r>
       <r>    3.4909    1.0000 </r>
[...]
       <r>    72.5661     0.4471    31.1111 </r>
       <r>    72.9384     0.2594    31.2077 </r>
       <r>    73.3107     0.5308    31.4198 </r>
       <r>    73.6830     0.2408    31.5096 </r>
       <r>    74.0553     1.0474    31.8996 </r>
       <r>    74.4276     0.8698    32.2278 </r>
       <r>    74.7999     0.4529    32.3964 </r>
       <r>    75.1722     0.5594    32.6047 </r>
       <r>    75.5445     0.0000    32.6111 </r>
       <r>    75.9168     0.6901    32.8680 </r>
       <r>    76.2891     0.3775    33.0294 </r>
       <r>    76.6614     0.3629    33.1667 </r>
       <r>    77.0337     0.4475    33.3333 </r>
       <r>    77.4060     0.5879    33.5522 </r>
       <r>    77.7783     0.0100    33.5593 </r>
       <r>    78.1506     0.5020    33.7461 </r>
       <r>    78.5229     0.4440    33.9115 </r>
       <r>    78.8952     0.9801    34.2764 </r>
       <r>    79.2675     0.5298    34.4750 </r>
       <r>    79.6398     0.7964    34.7759 </r>
       <r>    80.0121     0.0000    34.7778 </r>
       <r>    80.3844     0.2984    34.8889 </r>
       <r>    80.7567     0.0068    34.8914 </r>
       <r>    81.1290     0.2838    34.9971 </r>
       <r>    81.5013     0.3543    35.1319 </r>
       <r>    81.8736     0.0934    35.1667 </r>
       <r>    82.2459     0.4402    35.3305 </r>
       <r>    82.6182     0.2916    35.4419 </r>
       <r>    82.9905     0.9643    35.8047 </r>
       <r>    83.3628     0.2908    35.9130 </r>
       <r>    83.7351     0.6630    36.1598 </r>
       <r>    84.1074     0.0183    36.1735 </r>
       <r>    84.4797     0.7660    36.4587 </r>
       <r>    84.8520     0.7816    36.7496 </r>
       <r>    85.2243     0.6696    36.9990 </r>
       <r>    85.5967     0.4345    37.1618 </r>
       <r>    85.9690     0.1492    37.2222 </r>
       <r>    86.3413     0.5967    37.4444 </r>
       <r>    86.7136     0.1492    37.5000 </r>
       <r>    87.0859     0.5969    37.7222 </r>
       <r>    87.4582     0.5974    37.9446 </r>
       <r>    87.8305     0.5959    38.1667 </r>
       <r>    88.2028     0.3684    38.3038 </r>
       <r>    88.5751     1.0406    38.6912 </r>
       <r>    88.9474     0.2322    38.7778 </r>
       <r>    89.3197     0.2984    38.8889 </r>
       <r>    89.6920     0.5966    39.1110 </r>
       <r>    90.0643     0.8920    39.4432 </r>
       <r>    90.4366     0.2854    39.5556 </r>
       <r>    90.8089     0.6594    39.8011 </r>
       <r>    91.1812     0.5527    40.0068 </r>
       <r>    91.5535     0.6988    40.2670 </r>
       <r>    91.9258     0.6412    40.5058 </r>
       <r>    92.2981     0.1333    40.5556 </r>
       <r>    92.6704     0.4476    40.7222 </r>
       <r>    93.0427     0.1492    40.7778 </r>
       <r>    93.4150     0.5957    40.9996 </r>
       <r>    93.7873     0.5568    41.2078 </r>
       <r>    94.1596     0.1885    41.2780 </r>
       <r>    94.5319     0.1566    41.3363 </r>
       <r>    94.9042     0.1663    41.3982 </r>
       <r>    95.2765     0.2735    41.5000 </r>
       <r>    95.6488     0.0000    41.5000 </r>
       <r>    96.0211     0.0001    41.5000 </r>
       <r>    96.3934     0.5960    41.7219 </r>
       <r>    96.7657     0.0000    41.7222 </r>
       <r>    97.1380     0.0000    41.7222 </r>
       <r>    97.5103     0.0001    41.7223 </r>
       <r>    97.8826     0.4475    41.8889 </r>
       <r>    98.2549     0.1492    41.9444 </r>
       <r>    98.6272     0.0000    41.9444 </r>
       <r>    98.9995     0.0000    41.9444 </r>
       <r>    99.3719     0.0000    41.9444 </r>
       <r>    99.7442     0.0000    41.9444 </r>
       <r>   100.1165     0.0000    41.9444 </r>
       <r>   100.4888     0.0326    41.9566 </r>
       <r>   100.8611     0.1166    42.0000 </r>
       <r>   101.2334     0.0000    42.0000 </r>
       <r>   101.6057     0.0000    42.0000 </r>
       <r>   101.9780     0.0000    42.0000 </r>
       <r>   102.3503     0.0000    42.0000 </r>
       <r>   102.7226     0.0000    42.0000 </r>
       <r>   103.0949     0.0000    42.0000 </r>
       <r>   103.4672     0.0000    42.0000 </r>
       <r>   103.8395     0.0000    42.0000 </r>
       <r>   104.2118     0.0000    42.0000 </r>
       <r>   104.5841     0.0000    42.0000 </r>
       <r>   104.9564     0.0000    42.0000 </r>
       <r>   105.3287     0.0000    42.0000 </r>
       <r>   105.7010     0.0000    42.0000 </r>
      </set>
      <set comment="spin 2">
       <r>    -5.9898     0.0000     0.0000 </r>
       <r>    -5.6175     0.0000     0.0000 </r>
       <r>    -5.2452     0.0000     0.0000 </r>
       <r>    -4.8729     0.0000     0.0000 </r>
       <r>    -4.5006     0.0000     0.0000 </r>
       <r>    -4.1283     0.0000     0.0000 </r>
       <r>    -3.7560     0.0000     0.0000 </r>
       <r>    -3.3837     0.0000     0.0000 </r>
       <r>    -3.0114     0.0000     0.0000 </r>
       <r>    -2.6391     0.0000     0.0000 </r>
       <r>    -2.2668     0.0000     0.0000 </r>
       <r>    -1.8945     0.0000     0.0000 </r>
       <r>    -1.5222     0.0000     0.0000 </r>
       <r>    -1.1499     0.0000     0.0000 </r>
       <r>    -0.7776     0.1477     0.0550 </r>
       <r>    -0.4053     0.0000     0.0556 </r>
       <r>    -0.0330     0.0000     0.0556 </r>
       <r>     0.3393     0.0003     0.0557 </r>
       <r>     0.7116     0.2982     0.1667 </r>
       <r>     1.0839     0.0000     0.1667 </r>
       <r>     1.4562     0.0615     0.1895 </r>
       <r>     1.8285     0.2637     0.2877 </r>
       <r>     2.2009     0.6371     0.5249 </r>
       <r>     2.5732     1.1261     0.9442 </r>
       <r>     2.9455     0.4456     1.1106 </r>
       <r>     3.3178     0.7397     1.3865 </r>
       <r>     3.6901     1.5948     1.9870 </r>
       <r>     4.0624     0.8914     2.3344 </r>
       <r>     4.4347     0.7164     2.6011 </r>
       <r>     4.8070     0.5961     2.8330 </r>
       <r>     5.1793     0.6075     3.0595 </r>
       <r>     5.5516     1.6987     3.6920 </r>
       <r>     5.9239     0.4569     3.8695 </r>
       <r>     6.2962     1.4235     4.4042 </r>
       <r>     6.6685     0.8535     4.7229 </r>
       <r>     7.0408     1.6986     5.3686 </r>
       <r>     7.4131     0.1670     5.4510 </r>
       <r>     7.7854     0.1334     5.5007 </r>
       <r>     8.1577     0.3012     5.6128 </r>
       <r>     8.5300     0.1448     5.6668 </r>
       <r>     8.9023     0.2982     5.7778 </r>
       <r>     9.2746     0.0000     5.7778 </r>
       <r>     9.6469     0.1404     5.8301 </r>
       <r>    10.0192     0.0000     5.8333 </r>
       <r>    10.3915     0.0049     5.8352 </r>
       <r>    10.7638     0.2935     5.9444 </r>
       <r>    11.1361     0.0000     5.9444 </r>
       <r>    11.5084     0.0000     5.9444 </r>
       <r>    11.8807     0.2984     6.0556 </r>
       <r>    12.2530     0.5490     6.2599 </r>
       <r>    12.6253     0.3255     6.3889 </r>
       <r>    12.9976     0.2540     6.4835 </r>
       <r>    13.3699     0.1926     6.5556 </r>
       <r>    13.7422     0.0000     6.5556 </r>
       <r>    14.1145     0.0951     6.5910 </r>
       <r>    14.4868     0.3526     6.7222 </r>
       <r>    14.8591     0.0000     6.7222 </r>
       <r>    15.2314     0.0000     6.7222 </r>
       <r>    15.6037     0.0000     6.7222 </r>
       <r>    15.9761     0.2984     6.8333 </r>
       <r>    16.3484     0.2445     6.9244 </r>
       <r>    16.7207     0.0585     6.9462 </r>
       <r>    17.0930     0.3291     7.0687 </r>
       <r>    17.4653     0.5617     7.2778 </r>
       <r>    17.8376     0.1492     7.3333 </r>
       <r>    18.2099     0.1481     7.3885 </r>
       <r>    18.5822     0.0000     7.3889 </r>
       <r>    18.9545     0.0003     7.3890 </r>
       <r>    19.3268     0.2982     7.5000 </r>
       <r>    19.6991     0.1611     7.5600 </r>
       <r>    20.0714     0.7889     7.8537 </r>
       <r>    20.4437     0.4991     8.0395 </r>
       <r>    20.8160     0.0000     8.0556 </r>
       <r>    21.1883     0.0033     8.0568 </r>
       <r>    21.5606     0.4444     8.2222 </r>
       <r>    21.9329     0.1492     8.2778 </r>
       <r>    22.3052     0.1492     8.3333 </r>
       <r>    22.6775     0.1484     8.3886 </r>
       <r>    23.0498     0.5297     8.5861 </r>
       <r>    23.4221     0.5146     8.7778 </r>
       <r>    23.7944     0.1030     8.8161 </r>
       <r>    24.1667     0.3447     8.9444 </r>
       <r>    24.5390     0.1326     8.9938 </r>
       <r>    24.9113     0.7628     9.2778 </r>
       <r>    25.2836     0.4404     9.4418 </r>
       <r>    25.6559     0.2984     9.5556 </r>
       <r>    26.0282     0.0000     9.5556 </r>
       <r>    26.4005     0.2984     9.6667 </r>
       <r>    26.7728     0.2984     9.7778 </r>
       <r>    27.1451     0.0000     9.7778 </r>
       <r>    27.5174     0.4270     9.9367 </r>
       <r>    27.8897     0.1545    10.0000 </r>
       <r>    28.2620     0.4580    10.1705 </r>
       <r>    28.6343     0.1575    10.2292 </r>
       <r>    29.0066     0.1313    10.2781 </r>
       <r>    29.3789     0.8933    10.6107 </r>
       <r>    29.7512     0.1649    10.6725 </r>
       <r>    30.1236     0.2800    10.7768 </r>
       <r>    30.4959     0.0000    10.7778 </r>
       <r>    30.8682     0.0355    10.7910 </r>
       <r>    31.2405     0.8598    11.1111 </r>
       <r>    31.6128     0.0222    11.1194 </r>
       <r>    31.9851     0.2763    11.2222 </r>
       <r>    32.3574     0.0306    11.2336 </r>
       <r>    32.7297     0.3193    11.3525 </r>
       <r>    33.1020     1.1425    11.7778 </r>
       <r>    33.4743     0.5692    11.9897 </r>
       <r>    33.8466     0.0000    12.0000 </r>
       <r>    34.2189     0.1679    12.0625 </r>
       <r>    34.5912     0.7272    12.3333 </r>
       <r>    34.9635     0.0000    12.3333 </r>
       <r>    35.3358     0.2997    12.4449 </r>
       <r>    35.7081     0.2697    12.5453 </r>
       <r>    36.0804     0.4734    12.7216 </r>
       <r>    36.4527     0.2805    12.8267 </r>
       <r>    36.8250     0.5909    13.0557 </r>
       <r>    37.1973     0.3000    13.1674 </r>
       <r>    37.5696     0.1472    13.2222 </r>
       <r>    37.9419     0.0000    13.2222 </r>
       <r>    38.3142     0.0000    13.2222 </r>
       <r>    38.6865     0.3250    13.3432 </r>
       <r>    39.0588     0.6782    13.5976 </r>
       <r>    39.4311     0.2154    13.6778 </r>
       <r>    39.8034     0.8654    14.0000 </r>
       <r>    40.1757     0.0025    14.0009 </r>
       <r>    40.5480     1.1420    14.4261 </r>
       <r>    40.9203     0.6036    14.6511 </r>
       <r>    41.2926     0.0000    14.6667 </r>
       <r>    41.6649     0.2593    14.7632 </r>
       <r>    42.0372     0.1869    14.8333 </r>
       <r>    42.4095     0.1098    14.8742 </r>
       <r>    42.7818     0.6363    15.1111 </r>
       <r>    43.1541     0.4456    15.2770 </r>
       <r>    43.5264     0.1438    15.3333 </r>
       <r>    43.8988     0.2176    15.4144 </r>
       <r>    44.2711     0.5285    15.6111 </r>
       <r>    44.6434     0.0000    15.6111 </r>
       <r>    45.0157     0.5963    15.8331 </r>
       <r>    45.3880     0.1491    15.8888 </r>
       <r>    45.7603     0.2986    16.0000 </r>
       <r>    46.1326     0.3087    16.1150 </r>
       <r>    46.5049     0.5865    16.3333 </r>
       <r>    46.8772     0.2984    16.4444 </r>
       <r>    47.2495     0.2860    16.5509 </r>
       <r>    47.6218     0.8220    16.8620 </r>
       <r>    47.9941     0.1945    16.9613 </r>
       <r>    48.3664     0.3216    17.0874 </r>
       <r>    48.7387     0.8089    17.3885 </r>
       <r>    49.1110     0.5979    17.6115 </r>
       <r>    49.4833     0.5883    17.8305 </r>
       <r>    49.8556     0.7563    18.1149 </r>
       <r>    50.2279     0.5660    18.3274 </r>
       <r>    50.6002     0.5764    18.5479 </r>
       <r>    50.9725     0.9286    18.9013 </r>
       <r>    51.3448     0.5584    19.1111 </r>
       <r>    51.7171     1.3232    19.6038 </r>
       <r>    52.0894     1.1017    20.0242 </r>
       <r>    52.4617     1.4756    20.5832 </r>
       <r>    52.8340     1.4623    21.1396 </r>
       <r>    53.2063     0.3635    21.2778 </r>
       <r>    53.5786     0.0473    21.2954 </r>
       <r>    53.9509     0.8320    21.6051 </r>
       <r>    54.3232     0.0065    21.6135 </r>
       <r>    54.6955     0.8674    21.9364 </r>
       <r>    55.0678     0.5363    22.1441 </r>
       <r>    55.4401     0.7955    22.4403 </r>
       <r>    55.8124     0.4453    22.6109 </r>
       <r>    56.1847     0.6607    22.8575 </r>
       <r>    56.5570     0.5320    23.0556 </r>
       <r>    56.9293     0.2026    23.1310 </r>
       <r>    57.3016     1.4331    23.6645 </r>
       <r>    57.6740     0.6726    23.9364 </r>
       <r>    58.0463     0.5948    24.1659 </r>
       <r>    58.4186     0.2984    24.2778 </r>
       <r>    58.7909     0.5310    24.4755 </r>
       <r>    59.1632     0.3636    24.6109 </r>
       <r>    59.5355     0.6668    24.8594 </r>
       <r>    59.9078     0.8324    25.1693 </r>
       <r>    60.2801     0.4212    25.3261 </r>
       <r>    60.6524     0.8936    25.6666 </r>
       <r>    61.0247     0.4476    25.8333 </r>
       <r>    61.3970     0.0003    25.8334 </r>
       <r>    61.7693     0.4223    25.9906 </r>
       <r>    62.1416     0.6938    26.2489 </r>
       <r>    62.5139     0.0822    26.2798 </r>
       <r>    62.8862     0.8899    26.6111 </r>
       <r>    63.2585     0.3122    26.7273 </r>
       <r>    63.6308     0.1355    26.7778 </r>
       <r>    64.0031     0.4806    26.9567 </r>
       <r>    64.3754     0.5539    27.1629 </r>
       <r>    64.7477     0.6226    27.3985 </r>
       <r>    65.1200     1.1093    27.8162 </r>
       <r>    65.4923     0.7268    28.1039 </r>
       <r>    65.8646     0.1476    28.1661 </r>
       <r>    66.2369     0.1492    28.2222 </r>
       <r>    66.6092     0.6146    28.4511 </r>
       <r>    66.9815     0.1269    28.5000 </r>
       <r>    67.3538     0.5969    28.7222 </r>
       <r>    67.7261     0.0000    28.7222 </r>
       <r>    68.0984     0.2984    28.8333 </r>
       <r>    68.4707     0.5265    29.0294 </r>
       <r>    68.8430     0.4071    29.1810 </r>
       <r>    69.2153     0.2599    29.2778 </r>
       <r>    69.5876     0.5395    29.4786 </r>
       <r>    69.9599     0.5437    29.7024 </r>
       <r>    70.3322     0.6334    29.9407 </r>
       <r>    70.7045     0.1227    29.9901 </r>
       <r>    71.0768     0.4560    30.1698 </r>
       <r>    71.4491     0.8575    30.4896 </r>
       <r>    71.8215     1.0711    30.8889 </r>
       <r>    72.1938     0.1491    30.9444 </r>
       <r>    72.5661     0.4473    31.1110 </r>
       <r>    72.9384     0.0318    31.1229 </r>
       <r>    73.3107     0.3430    31.2507 </r>
       <r>    73.6830     0.6698    31.5000 </r>
       <r>    74.0553     0.7955    31.7962 </r>
       <r>    74.4276     1.1333    32.2222 </r>
       <r>    74.7999     0.4477    32.3889 </r>
       <r>    75.1722     0.4563    32.5588 </r>
       <r>    75.5445     0.1354    32.6111 </r>
       <r>    75.9168     0.2978    32.7220 </r>
       <r>    76.2891     0.6832    32.9763 </r>
       <r>    76.6614     0.4420    33.1650 </r>
       <r>    77.0337     0.4476    33.3333 </r>
       <r>    77.4060     0.3200    33.4525 </r>
       <r>    77.7783     0.2303    33.5556 </r>
       <r>    78.1506     0.4478    33.7223 </r>
       <r>    78.5229     0.4144    33.8766 </r>
       <r>    78.8952     0.9986    34.2608 </r>
       <r>    79.2675     0.3384    34.4038 </r>
       <r>    79.6398     0.8102    34.7065 </r>
       <r>    80.0121     0.1644    34.7778 </r>
       <r>    80.3844     0.2984    34.8889 </r>
       <r>    80.7567     0.0000    34.8889 </r>
       <r>    81.1290     0.2190    34.9704 </r>
       <r>    81.5013     0.3793    35.1116 </r>
       <r>    81.8736     0.1478    35.1667 </r>
       <r>    82.2459     0.4105    35.3195 </r>
       <r>    82.6182     0.1291    35.3678 </r>
       <r>    82.9905     0.9592    35.7249 </r>
       <r>    83.3628     0.3401    35.8516 </r>
       <r>    83.7351     0.5147    36.0432 </r>
       <r>    84.1074     0.3318    36.1667 </r>
       <r>    84.4797     0.7426    36.4431 </r>
       <r>    84.8520     0.6888    36.7009 </r>
       <r>    85.2243     0.7650    36.9857 </r>
       <r>    85.5967     0.3407    37.1125 </r>
       <r>    85.9690     0.2934    37.2222 </r>
       <r>    86.3413     0.5479    37.4262 </r>
       <r>    86.7136     0.1438    37.4980 </r>
       <r>    87.0859     0.5947    37.7214 </r>
       <r>    87.4582     0.5435    37.9246 </r>
       <r>    87.8305     0.6455    38.1649 </r>
       <r>    88.2028     0.1547    38.2243 </r>
       <r>    88.5751     1.1675    38.6589 </r>
       <r>    88.9474     0.2981    38.7778 </r>
       <r>    89.3197     0.2937    38.8871 </r>
       <r>    89.6920     0.4748    39.0657 </r>
       <r>    90.0643     0.5180    39.2607 </r>
       <r>    90.4366     0.7920    39.5556 </r>
       <r>    90.8089     0.5918    39.7759 </r>
       <r>    91.1812     0.5963    40.0000 </r>
       <r>    91.5535     0.5455    40.2031 </r>
       <r>    91.9258     0.5960    40.4452 </r>
       <r>    92.2981     0.2965    40.5556 </r>
       <r>    92.6704     0.4475    40.7222 </r>
       <r>    93.0427     0.1491    40.7777 </r>
       <r>    93.4150     0.4242    40.9357 </r>
       <r>    93.7873     0.6224    41.1675 </r>
       <r>    94.1596     0.2963    41.2778 </r>
       <r>    94.5319     0.1492    41.3333 </r>
       <r>    94.9042     0.1492    41.3889 </r>
       <r>    95.2765     0.2984    41.5000 </r>
       <r>    95.6488     0.0000    41.5000 </r>
       <r>    96.0211     0.0000    41.5000 </r>
       <r>    96.3934     0.4997    41.6860 </r>
       <r>    96.7657     0.0967    41.7222 </r>
       <r>    97.1380     0.0000    41.7222 </r>
       <r>    97.5103     0.0000    41.7222 </r>
       <r>    97.8826     0.4307    41.8826 </r>
       <r>    98.2549     0.1468    41.9435 </r>
       <r>    98.6272     0.0000    41.9444 </r>
       <r>    98.9995     0.0000    41.9444 </r>
       <r>    99.3719     0.0000    41.9444 </r>
       <r>    99.7442     0.0000    41.9444 </r>
       <r>   100.1165     0.0000    41.9444 </r>
       <r>   100.4888     0.0000    41.9444 </r>
       <r>   100.8611     0.1492    42.0000 </r>
       <r>   101.2334     0.0000    42.0000 </r>
       <r>   101.6057     0.0000    42.0000 </r>
       <r>   101.9780     0.0000    42.0000 </r>
       <r>   102.3503     0.0000    42.0000 </r>
       <r>   102.7226     0.0000    42.0000 </r>
       <r>   103.0949     0.0000    42.0000 </r>
       <r>   103.4672     0.0000    42.0000 </r>
       <r>   103.8395     0.0000    42.0000 </r>
       <r>   104.2118     0.0000    42.0000 </r>
       <r>   104.5841     0.0000    42.0000 </r>
       <r>   104.9564     0.0000    42.0000 </r>
       <r>   105.3287     0.0000    42.0000 </r>
       <r>   105.7010     0.0000    42.0000 </r>
      </set>
     </set>
    </array>
   </total>
  </dos>
 </calculation>
 <structure name="finalpos" >
  <crystal>
   <varray name="basis" >
    <v>       2.48000000       0.00000000       0.00000000 </v>
    <v>       0.00000000       2.48000000       0.00000000 </v>
    <v>       0.00000000       0.00000000       2.48000000 </v>
   </varray>
   <i name="volume">     15.25299200 </i>
   <varray name="rec_basis" >
    <v>       0.40322581       0.00000000       0.00000000 </v>
    <v>       0.00000000       0.40322581       0.00000000 </v>
    <v>       0.00000000       0.00000000       0.40322581 </v>
   </varray>
  </crystal>
  <varray name="positions" >
   <v>       0.00000000       0.00000000       0.00000000 </v>
  </varray>
 </structure>
</modeling>
