 vasp.6.5.1 10Mar25 (build Apr 08 2025 20:07:02) complex                        
  
 executed on             LinuxIFC date 2025.06.10  22:16:33
 running   42 mpi-ranks, on    1 nodes
 distrk:  each k-point on   42 cores,    1 groups
 distr:  one band on NCORE=   1 cores,   42 groups


--------------------------------------------------------------------------------------------------------


 INCAR:
   SYSTEM = CrCl3 Convergência
   PREC = Accurate
   ISMEAR = 0
   SIGMA = 0.05
   ENCUT = 500
   ISPIN = 2
   MAGMOM = 2*3.0 6*0.6
   EDIFF = 1E-6
   IBRION = -1
   NSW = 0
   LWAVE = .FALSE.
   LCHARG = .FALSE.

 POTCAR:    PAW_PBE Cr 06Sep2000                  
 POTCAR:    PAW_PBE Cl 06Sep2000                  
 -----------------------------------------------------------------------------
|                                                                             |
|           W    W    AA    RRRRR   N    N  II  N    N   GGGG   !!!           |
|           W    W   A  A   R    R  NN   N  II  NN   N  G    G  !!!           |
|           W    W  A    A  R    R  N N  N  II  N N  N  G       !!!           |
|           W WW W  AAAAAA  RRRRR   N  N N  II  N  N N  G  GGG   !            |
|           WW  WW  A    A  R   R   N   NN  II  N   NN  G    G                |
|           W    W  A    A  R    R  N    N  II  N    N   GGGG   !!!           |
|                                                                             |
|     For optimal performance we recommend to set                             |
|       NCORE = 2 up to number-of-cores-per-socket                            |
|     NCORE specifies how many cores store one orbital (NPAR=cpu/NCORE).      |
|     This setting can greatly improve the performance of VASP for DFT.       |
|     The default, NCORE=1 might be grossly inefficient on modern             |
|     multi-core architectures or massively parallel machines. Do your        |
|     own testing! More info at https://www.vasp.at/wiki/index.php/NCORE      |
|     Unfortunately you need to use the default for GW and RPA                |
|     calculations (for HF NCORE is supported but not extensively tested      |
|     yet).                                                                   |
|                                                                             |
 -----------------------------------------------------------------------------

 POTCAR:    PAW_PBE Cr 06Sep2000                  
   SHA256 =  56e7271fac8042f322b235801e26979132a24da65eb043fa6a03029023cb2fcc Cr/POTCAR             
   COPYR  = (c) Copyright 06Sep2000 Georg Kresse                                                    
   COPYR  = This file is part of the software VASP. Any use, copying, and all other rights are regul
   COPYR  = If you do not have a valid VASP license, you may not use, copy or distribute this file. 
   VRHFIN =Cr : d5 s1                                                                               
   LEXCH  = PE                                                                                      
   EATOM  =   276.8859 eV,   20.3505 Ry                                                             
                                                                                                    
   TITEL  = PAW_PBE Cr 06Sep2000                                                                    
   LULTRA =        F    use ultrasoft PP ?                                                          
   IUNSCR =        1    unscreen: 0-lin 1-nonlin 2-no                                               
   RPACOR =    2.080    partial core radius                                                         
   POMASS =   51.996; ZVAL   =    6.000    mass and valenz                                          
   RCORE  =    2.500    outmost cutoff radius                                                       
   RWIGS  =    2.500; RWIGS  =    1.323    wigner-seitz radius (au A)                               
   ENMAX  =  227.080; ENMIN  =  170.310 eV                                                          
   RCLOC  =    1.721    cutoff for local pot                                                        
   LCOR   =        T    correct aug charges                                                         
   LPAW   =        T    paw PP                                                                      
   EAUG   =  402.108                                                                                
   DEXC   =    0.000                                                                                
   RMAX   =    2.552    core radius for proj-oper                                                   
   RAUG   =    1.300    factor for augmentation sphere                                              
   RDEP   =    2.609    radius for radial grids                                                     
   RDEPT  =    2.065    core radius for aug-charge                                                  
                                                                                                    
   Atomic configuration                                                                             
    9 entries                                                                                       
     n  l   j            E        occ.                                                              
     1  0  0.50     -5880.4963   2.0000                                                             
     2  0  0.50      -667.0865   2.0000                                                             
     2  1  1.50      -560.6250   6.0000                                                             
     3  0  0.50       -73.9860   2.0000                                                             
     3  1  1.50       -45.4378   6.0000                                                             
     3  2  2.50        -2.9137   5.0000                                                             
     4  0  0.50        -4.0071   1.0000                                                             
     4  1  0.50        -1.2789   0.0000                                                             
     4  3  2.50        -1.3606   0.0000                                                             
   Description                                                                                      
     l       E           TYP  RCUT    TYP  RCUT                                                     
     2     -2.9136677     23  2.500                                                                 
     2     -4.2742503     23  2.500                                                                 
     0     -4.0071322     23  2.500                                                                 
     0      9.4498801     23  2.500                                                                 
     1     -5.4423304     23  2.500                                                                 
     1     27.2116520     23  2.500                                                                 
  local pseudopotential read in
  partial core-charges read in
  partial kinetic energy density read in
  atomic valenz-charges read in
  non local Contribution for L=           2  read in
    real space projection operators read in
  non local Contribution for L=           2  read in
    real space projection operators read in
  non local Contribution for L=           0  read in
    real space projection operators read in
  non local Contribution for L=           0  read in
    real space projection operators read in
  non local Contribution for L=           1  read in
    real space projection operators read in
  non local Contribution for L=           1  read in
    real space projection operators read in
    PAW grid and wavefunctions read in
 
   number of l-projection  operators is LMAX  =           6
   number of lm-projection operators is LMMAX =          18
 
 POTCAR:    PAW_PBE Cl 06Sep2000                  
   SHA256 =  9f1b6e6ed4247ac726a768b330d26d7667cc3c95a39ff49c1d064c2d9dcce931 Cl/POTCAR             
   COPYR  = (c) Copyright 06Sep2000 Georg Kresse                                                    
   COPYR  = This file is part of the software VASP. Any use, copying, and all other rights are regul
   COPYR  = If you do not have a valid VASP license, you may not use, copy or distribute this file. 
   VRHFIN =Cl: s2p5                                                                                 
   LEXCH  = PE                                                                                      
   EATOM  =   409.7259 eV,   30.1140 Ry                                                             
                                                                                                    
   TITEL  = PAW_PBE Cl 06Sep2000                                                                    
   LULTRA =        F    use ultrasoft PP ?                                                          
   IUNSCR =        1    unscreen: 0-lin 1-nonlin 2-no                                               
   RPACOR =    1.500    partial core radius                                                         
   POMASS =   35.453; ZVAL   =    7.000    mass and valenz                                          
   RCORE  =    1.900    outmost cutoff radius                                                       
   RWIGS  =    2.100; RWIGS  =    1.111    wigner-seitz radius (au A)                               
   ENMAX  =  262.472; ENMIN  =  196.854 eV                                                          
   ICORE  =        2    local potential                                                             
   LCOR   =        T    correct aug charges                                                         
   LPAW   =        T    paw PP                                                                      
   EAUG   =  356.192                                                                                
   DEXC   =    0.000                                                                                
   RMAX   =    1.945    core radius for proj-oper                                                   
   RAUG   =    1.300    factor for augmentation sphere                                              
   RDEP   =    2.020    radius for radial grids                                                     
   RDEPT  =    1.678    core radius for aug-charge                                                  
                                                                                                    
   Atomic configuration                                                                             
    6 entries                                                                                       
     n  l   j            E        occ.                                                              
     1  0  0.50     -2751.1850   2.0000                                                             
     2  0  0.50      -252.6861   2.0000                                                             
     2  1  1.50      -191.6157   6.0000                                                             
     3  0  0.50       -20.6916   2.0000                                                             
     3  1  0.50        -8.5949   5.0000                                                             
     3  2  1.50        -8.1635   0.0000                                                             
   Description                                                                                      
     l       E           TYP  RCUT    TYP  RCUT                                                     
     0    -20.6915656     23  1.900                                                                 
     0    -22.0521482     23  1.900                                                                 
     1     -8.5948577     23  1.900                                                                 
     1     -5.3847331     23  1.900                                                                 
     2     -8.1634956     23  1.900                                                                 
  local pseudopotential read in
  partial core-charges read in
  partial kinetic energy density read in
  atomic valenz-charges read in
  non local Contribution for L=           0  read in
    real space projection operators read in
  non local Contribution for L=           0  read in
    real space projection operators read in
  non local Contribution for L=           1  read in
    real space projection operators read in
  non local Contribution for L=           1  read in
    real space projection operators read in
    PAW grid and wavefunctions read in
 
   number of l-projection  operators is LMAX  =           4
   number of lm-projection operators is LMMAX =           8
 
  PAW_PBE Cr 06Sep2000                  :
 energy of atom  1       EATOM= -276.8859
 kinetic energy error for atom=    0.0012 (will be added to EATOM!!)
  PAW_PBE Cl 06Sep2000                  :
 energy of atom  2       EATOM= -409.7259
 kinetic energy error for atom=    0.0030 (will be added to EATOM!!)
 
 
 POSCAR: 
 -----------------------------------------------------------------------------
|                                                                             |
|           W    W    AA    RRRRR   N    N  II  N    N   GGGG   !!!           |
|           W    W   A  A   R    R  NN   N  II  NN   N  G    G  !!!           |
|           W    W  A    A  R    R  N N  N  II  N N  N  G       !!!           |
|           W WW W  AAAAAA  RRRRR   N  N N  II  N  N N  G  GGG   !            |
|           WW  WW  A    A  R   R   N   NN  II  N   NN  G    G                |
|           W    W  A    A  R    R  N    N  II  N    N   GGGG   !!!           |
|                                                                             |
|     Inconsistent Bravais lattice types found for crystalline and            |
|     reciprocal lattice:                                                     |
|                                                                             |
|        Crystalline: base-centered monoclinic                                |
|        Reciprocal : triclinic                                               |
|                    (instead of base-centered monoclinic)                    |
|                                                                             |
|     In most cases this is due to inaccuracies in the specification of       |
|     the crytalline lattice vectors.                                         |
|                                                                             |
|     Suggested SOLUTIONS:                                                    |
|      ) Refine the lattice parameters of your structure,                     |
|      ) and/or try changing SYMPREC.                                         |
|                                                                             |
 -----------------------------------------------------------------------------

  positions in cartesian coordinates
  No initial velocities read in


 exchange-correlation table for PE
   RHO(1)=    0.500       N(1)  =     2000
   RHO(2)=  100.500       N(2)  =     4000
 


--------------------------------------------------------------------------------------------------------


 ion  position               nearest neighbor table
   1  0.667  0.333  0.500-   4 2.40   6 2.41   8 2.41   3 2.41   5 2.41   7 2.41
   2  1.000  0.000  0.500-   6 2.40   4 2.41   7 2.41   8 2.41   5 2.41   3 2.41
   3  0.333  0.024  0.560-   1 2.41   2 2.41
   4  0.976  0.309  0.560-   1 2.40   2 2.41
   5  0.691  0.666  0.560-   2 2.41   1 2.41
   6  0.691  0.024  0.440-   2 2.40   1 2.41
   7  0.334  0.309  0.440-   2 2.41   1 2.41
   8  0.976  0.667  0.440-   2 2.41   1 2.41
 
  LATTYP: Found a base centered monoclinic cell.
 ALAT       =    46.0522173584
 B/A-ratio  =     0.2315140720
 C/A-ratio  =     0.4954947411
 COS(beta)  =    -0.9910458493
  
  Lattice vectors:
  
 A1 = (  -6.1563980000,  -0.0015340000, -22.8192420000)
 A2 = (   3.0771110000,  -5.3321000000, -22.8193060000)
 A3 = (   0.0023100000,   0.0042790000,  22.8186310000)


Analysis of symmetry for initial positions (statically):
=====================================================================
 Subroutine PRICEL returns:
 Original cell was already a primitive cell.
 

 Routine SETGRP: Setting up the symmetry group for a 
 base centered monoclinic supercell.


 Subroutine GETGRP returns: Found  1 space group operations
 (whereof  1 operations were pure point group operations)
 out of a pool of  4 trial point group operations.


The static configuration has the point symmetry C_1 .


Analysis of symmetry for dynamics (positions and initial velocities):
=====================================================================
 Subroutine PRICEL returns:
 Original cell was already a primitive cell.
 

 Routine SETGRP: Setting up the symmetry group for a 
 base centered monoclinic supercell.


 Subroutine GETGRP returns: Found  1 space group operations
 (whereof  1 operations were pure point group operations)
 out of a pool of  4 trial point group operations.


The dynamic configuration has the point symmetry C_1 .


Analysis of structural, dynamic, and magnetic symmetry:
=====================================================================
 Subroutine PRICEL returns:
 Original cell was already a primitive cell.
 

 Routine SETGRP: Setting up the symmetry group for a 
 base centered monoclinic supercell.


 Subroutine GETGRP returns: Found  1 space group operations
 (whereof  1 operations were pure point group operations)
 out of a pool of  4 trial point group operations.


The overall configuration has the point symmetry C_1 .


 Subroutine INISYM returns: Found  1 space group operations
 (whereof  1 operations are pure point group operations),
 and found     1 'primitive' translations


----------------------------------------------------------------------------------------

                                     Primitive cell                                     

  volume of cell :     747.9816

  direct lattice vectors                    reciprocal lattice vectors
     6.154088000 -0.002745000  0.000611000     0.162535521  0.093943719 -0.000034071
    -3.079421000  5.327821000  0.000675000     0.000083745  0.187742402 -0.000035214
     0.002310000  0.004279000 22.818631000    -0.000004355 -0.000008069  0.043823840

  length of vectors
     6.154088643  6.153739575 22.818631518     0.187731774  0.187742424  0.043823841

  position of ions in fractional coordinates (direct lattice)
     0.666736594  0.333271515  0.500001034
     0.999932001  0.000057150  0.499996780
     0.333036773  0.024315239  0.559914124
     0.976157585  0.309498728  0.559709996
     0.691010203  0.666388278  0.559921327
     0.690524329  0.023819428  0.440290280
     0.333612637  0.309016604  0.440085142
     0.975657232  0.666961176  0.440079793

  ion indices of the primitive-cell ions
   primitive index   ion index
                 1           1
                 2           2
                 3           3
                 4           4
                 5           5
                 6           6
                 7           7
                 8           8

----------------------------------------------------------------------------------------

 
 
 KPOINTS: Automatic mesh                          

Automatic generation of k-mesh.
 Grid dimensions read from file:
 generate k-points for:    6    6    4

 Generating k-lattice:

  Cartesian coordinates                     Fractional coordinates (reciprocal lattice)
     0.027089253  0.015657286 -0.000005678     0.166666667 -0.000000000  0.000000000
     0.000013958  0.031290400 -0.000005869     0.000000000  0.166666667  0.000000000
    -0.000001089 -0.000002017  0.010955960     0.000000000 -0.000000000  0.250000000

  Length of vectors
     0.031288629  0.031290404  0.010955960

  Shift w.r.t. Gamma in fractional coordinates (k-lattice)
     0.500000000  0.500000000  0.500000000

 
 Subroutine IBZKPT returns following result:
 ===========================================
 
 Found     72 irreducible k-points:
 
 Following reciprocal coordinates:
            Coordinates               Weight
  0.083333  0.083333  0.125000      2.000000
  0.250000  0.083333  0.125000      2.000000
  0.416667  0.083333  0.125000      2.000000
 -0.416667  0.083333  0.125000      2.000000
 -0.250000  0.083333  0.125000      2.000000
 -0.083333  0.083333  0.125000      2.000000
  0.083333  0.250000  0.125000      2.000000
  0.250000  0.250000  0.125000      2.000000
  0.416667  0.250000  0.125000      2.000000
 -0.416667  0.250000  0.125000      2.000000
 -0.250000  0.250000  0.125000      2.000000
 -0.083333  0.250000  0.125000      2.000000
  0.083333  0.416667  0.125000      2.000000
  0.250000  0.416667  0.125000      2.000000
  0.416667  0.416667  0.125000      2.000000
 -0.416667  0.416667  0.125000      2.000000
 -0.250000  0.416667  0.125000      2.000000
 -0.083333  0.416667  0.125000      2.000000
  0.083333 -0.416667  0.125000      2.000000
  0.250000 -0.416667  0.125000      2.000000
  0.416667 -0.416667  0.125000      2.000000
 -0.416667 -0.416667  0.125000      2.000000
 -0.250000 -0.416667  0.125000      2.000000
 -0.083333 -0.416667  0.125000      2.000000
  0.083333 -0.250000  0.125000      2.000000
  0.250000 -0.250000  0.125000      2.000000
  0.416667 -0.250000  0.125000      2.000000
 -0.416667 -0.250000  0.125000      2.000000
 -0.250000 -0.250000  0.125000      2.000000
 -0.083333 -0.250000  0.125000      2.000000
  0.083333 -0.083333  0.125000      2.000000
  0.250000 -0.083333  0.125000      2.000000
  0.416667 -0.083333  0.125000      2.000000
 -0.416667 -0.083333  0.125000      2.000000
 -0.250000 -0.083333  0.125000      2.000000
 -0.083333 -0.083333  0.125000      2.000000
  0.083333  0.083333  0.375000      2.000000
  0.250000  0.083333  0.375000      2.000000
  0.416667  0.083333  0.375000      2.000000
 -0.416667  0.083333  0.375000      2.000000
 -0.250000  0.083333  0.375000      2.000000
 -0.083333  0.083333  0.375000      2.000000
  0.083333  0.250000  0.375000      2.000000
  0.250000  0.250000  0.375000      2.000000
  0.416667  0.250000  0.375000      2.000000
 -0.416667  0.250000  0.375000      2.000000
 -0.250000  0.250000  0.375000      2.000000
 -0.083333  0.250000  0.375000      2.000000
  0.083333  0.416667  0.375000      2.000000
  0.250000  0.416667  0.375000      2.000000
  0.416667  0.416667  0.375000      2.000000
 -0.416667  0.416667  0.375000      2.000000
 -0.250000  0.416667  0.375000      2.000000
 -0.083333  0.416667  0.375000      2.000000
  0.083333 -0.416667  0.375000      2.000000
  0.250000 -0.416667  0.375000      2.000000
  0.416667 -0.416667  0.375000      2.000000
 -0.416667 -0.416667  0.375000      2.000000
 -0.250000 -0.416667  0.375000      2.000000
 -0.083333 -0.416667  0.375000      2.000000
  0.083333 -0.250000  0.375000      2.000000
  0.250000 -0.250000  0.375000      2.000000
  0.416667 -0.250000  0.375000      2.000000
 -0.416667 -0.250000  0.375000      2.000000
 -0.250000 -0.250000  0.375000      2.000000
 -0.083333 -0.250000  0.375000      2.000000
  0.083333 -0.083333  0.375000      2.000000
  0.250000 -0.083333  0.375000      2.000000
  0.416667 -0.083333  0.375000      2.000000
 -0.416667 -0.083333  0.375000      2.000000
 -0.250000 -0.083333  0.375000      2.000000
 -0.083333 -0.083333  0.375000      2.000000
 
 Following cartesian coordinates:
            Coordinates               Weight
  0.013551  0.023473  0.005472      2.000000
  0.040640  0.039130  0.005467      2.000000
  0.067730  0.054787  0.005461      2.000000
 -0.067717 -0.023499  0.005489      2.000000
 -0.040627 -0.007842  0.005484      2.000000
 -0.013538  0.007816  0.005478      2.000000
  0.013565  0.054763  0.005466      2.000000
  0.040654  0.070421  0.005461      2.000000
  0.067744  0.086078  0.005455      2.000000
 -0.067703  0.007791  0.005483      2.000000
 -0.040613  0.023449  0.005478      2.000000
 -0.013524  0.039106  0.005472      2.000000
  0.013579  0.086054  0.005460      2.000000
  0.040668  0.101711  0.005455      2.000000
  0.067757  0.117368  0.005449      2.000000
 -0.067689  0.039082  0.005478      2.000000
 -0.040600  0.054739  0.005472      2.000000
 -0.013510  0.070396  0.005466      2.000000
  0.013509 -0.070398  0.005490      2.000000
  0.040598 -0.054741  0.005484      2.000000
  0.067688 -0.039084  0.005478      2.000000
 -0.067759 -0.117370  0.005507      2.000000
 -0.040669 -0.101713  0.005501      2.000000
 -0.013580 -0.086056  0.005495      2.000000
  0.013523 -0.039108  0.005484      2.000000
  0.040612 -0.023451  0.005478      2.000000
  0.067702 -0.007793  0.005473      2.000000
 -0.067745 -0.086080  0.005501      2.000000
 -0.040655 -0.070423  0.005495      2.000000
 -0.013566 -0.054765  0.005490      2.000000
  0.013537 -0.007818  0.005478      2.000000
  0.040626  0.007840  0.005472      2.000000
  0.067716  0.023497  0.005467      2.000000
 -0.067731 -0.054789  0.005495      2.000000
 -0.040641 -0.039132  0.005489      2.000000
 -0.013552 -0.023475  0.005484      2.000000
  0.013550  0.023471  0.016428      2.000000
  0.040639  0.039128  0.016422      2.000000
  0.067728  0.054785  0.016417      2.000000
 -0.067718 -0.023501  0.016445      2.000000
 -0.040629 -0.007844  0.016440      2.000000
 -0.013539  0.007814  0.016434      2.000000
  0.013564  0.054761  0.016422      2.000000
  0.040653  0.070419  0.016417      2.000000
  0.067742  0.086076  0.016411      2.000000
 -0.067704  0.007789  0.016439      2.000000
 -0.040615  0.023447  0.016434      2.000000
 -0.013525  0.039104  0.016428      2.000000
  0.013578  0.086052  0.016416      2.000000
  0.040667  0.101709  0.016411      2.000000
  0.067756  0.117366  0.016405      2.000000
 -0.067690  0.039080  0.016433      2.000000
 -0.040601  0.054737  0.016428      2.000000
 -0.013511  0.070394  0.016422      2.000000
  0.013508 -0.070400  0.016446      2.000000
  0.040597 -0.054743  0.016440      2.000000
  0.067687 -0.039086  0.016434      2.000000
 -0.067760 -0.117372  0.016463      2.000000
 -0.040670 -0.101715  0.016457      2.000000
 -0.013581 -0.086058  0.016451      2.000000
  0.013522 -0.039110  0.016440      2.000000
  0.040611 -0.023453  0.016434      2.000000
  0.067701 -0.007795  0.016429      2.000000
 -0.067746 -0.086082  0.016457      2.000000
 -0.040656 -0.070425  0.016451      2.000000
 -0.013567 -0.054767  0.016446      2.000000
  0.013536 -0.007820  0.016434      2.000000
  0.040625  0.007838  0.016428      2.000000
  0.067715  0.023495  0.016423      2.000000
 -0.067732 -0.054791  0.016451      2.000000
 -0.040642 -0.039134  0.016445      2.000000
 -0.013553 -0.023477  0.016440      2.000000
 


--------------------------------------------------------------------------------------------------------




 Dimension of arrays:
   k-points           NKPTS =     72   k-points in BZ     NKDIM =     72   number of bands    NBANDS=     42
   number of dos      NEDOS =    301   number of ions     NIONS =      8
   non local maximal  LDIM  =      6   non local SUM 2l+1 LMDIM =     18
   total plane-waves  NPLWV = 387072
   max r-space proj   IRMAX =      1   max aug-charges    IRDMAX=  26633
   dimension x,y,z NGX =    48 NGY =   48 NGZ =  168
   dimension x,y,z NGXF=    96 NGYF=   96 NGZF=  336
   support grid    NGXF=    96 NGYF=   96 NGZF=  336
   ions per type =               2   6
   NGX,Y,Z   is equivalent  to a cutoff of  12.97, 12.97, 12.24 a.u.
   NGXF,Y,Z  is equivalent  to a cutoff of  25.93, 25.93, 24.48 a.u.

 SYSTEM =  CrCl3 Convergência                     
 POSCAR =                                          

 Startparameter for this run:
   NWRITE =      2    write-flag & timer
   PREC   = accura    normal or accurate (medium, high low for compatibility)
   ISTART =      0    job   : 0-new  1-cont  2-samecut
   ICHARG =      2    charge: 1-file 2-atom 10-const
   ISPIN  =      2    spin polarized calculation?
   LNONCOLLINEAR =      F non collinear calculations
   LSORBIT =      F    spin-orbit coupling
   INIWAV =      1    electr: 0-lowe 1-rand  2-diag
   LASPH  =      F    aspherical Exc in radial PAW
 Electronic Relaxation 1
   ENCUT  =  500.0 eV  36.75 Ry    6.06 a.u.  11.22 11.22 41.60*2*pi/ulx,y,z
   ENINI  =  500.0     initial cutoff
   ENAUG  =  402.1 eV  augmentation charge cutoff
   NELM   =     60;   NELMIN=  2; NELMDL= -5     # of ELM steps 
   EDIFF  = 0.1E-05   stopping-criterion for ELM
   LREAL  =      F    real-space projection
   NLSPLINE    = F    spline interpolate recip. space projectors
   LCOMPAT=      F    compatible to vasp.4.4
   GGA_COMPAT  = T    GGA compatible to vasp.4.4-vasp.4.6
   LMAXPAW     = -100 max onsite density
   LMAXMIX     =    2 max onsite mixed and CHGCAR
   VOSKOWN=      0    Vosko Wilk Nusair interpolation
   ROPT   =    0.00000   0.00000
 Ionic relaxation
   EDIFFG = 0.1E-04   stopping-criterion for IOM
   NSW    =      0    number of steps for IOM
   NBLOCK =      1;   KBLOCK =      1    inner block; outer block 
   IBRION =     -1    ionic relax: 0-MD 1-quasi-New 2-CG
   NFREE  =      0    steps in history (QN), initial steepest desc. (CG)
   ISIF   =      2    stress and relaxation
   IWAVPR =     10    prediction:  0-non 1-charg 2-wave 3-comb
   ISYM   =      2    0-nonsym 1-usesym 2-fastsym
   LCORR  =      T    Harris-Foulkes like correction to forces

   POTIM  = 0.5000    time-step for ionic-motion
   TEIN   =    0.0    initial temperature
   TEBEG  =    0.0;   TEEND  =   0.0 temperature during run
   SMASS  =  -3.00    Nose mass-parameter (am)
   estimated Nose-frequenzy (Omega)   =  0.10E-29 period in steps = 0.13E+47 mass=  -0.865E-27a.u.
   SCALEE = 1.0000    scale energy and forces
   NPACO  =    256;   APACO  = 10.0  distance and # of slots for P.C.
   PSTRESS=    0.0 pullay stress

  Mass of Ions in am
   POMASS =  52.00 35.45
  Ionic Valenz
   ZVAL   =   6.00  7.00
  Atomic Wigner-Seitz radii
   RWIGS  =  -1.00 -1.00
  virtual crystal weights 
   VCA    =   1.00  1.00
   NELECT =      54.0000    total number of electrons
   NUPDOWN=      -1.0000    fix difference up-down

 DOS related values:
   EMIN   =  10.00;   EMAX   =-10.00  energy-range for DOS
   EFERMI =   0.00;   METHOD = LEGACY      
   ISMEAR =     0;   SIGMA  =   0.05  broadening in eV -4-tet -1-fermi 0-gaus
   EFERMI_NEDOS =   21; number of points for ismear=-14 and -15

 Electronic relaxation 2 (details)
   IALGO  =     38    algorithm
   LDIAG  =      T    sub-space diagonalisation (order eigenvalues)
   LSUBROT=      F    optimize rotation matrix (better conditioning)
   LROBUST=      F    robust break criterion during scf (extrapolated energy error)
   ISEARCH=      0    line search for conjugate gradient (0, 1=use gradient)
   TURBO    =      0    0=normal 1=particle mesh
   IRESTART =      0    0=no restart 2=restart with 2 vectors
   NREBOOT  =      0    no. of reboots
   NMIN     =      0    reboot dimension
   EREF     =   0.00    reference energy to select bands
   IMIX   =      4    mixing-type and parameters
     AMIX     =   0.40;   BMIX     =  1.00
     AMIX_MAG =   1.60;   BMIX_MAG =  1.00
     AMIN     =   0.10
     WC   =   100.;   INIMIX=   1;  MIXPRE=   1;  MAXMIX= -45

 Intra band minimization:
   WEIMIN = 0.0000     energy-eigenvalue tresh-hold
   EBREAK =  0.60E-08  absolut break condition
   DEPER  =   0.30     relativ break condition  

   TIME   =   0.40     timestep for ELM

  volume/ion in A,a.u.               =      93.50       630.95
  Fermi-wavevector in a.u.,A,eV,Ry     =   0.681673  1.288174  6.322320  0.464677
  Thomas-Fermi vector in A             =   1.760523
 
 Write flags
   LWAVE        =      F    write WAVECAR
   LDOWNSAMPLE  =      F    k-point downsampling of WAVECAR
   LCHARG       =      F    write CHGCAR
   LVTOT        =      F    write LOCPOT, total local potential
   LVHAR        =      F    write LOCPOT, Hartree potential only
   WRT_POTENTIAL= false  ! write potential to hdf5 file
   LELF         =      F    write electronic localiz. function (ELF)
   LORBIT       =      0    0 simple, 1 ext, 2 COOP (PROOUT), +10 PAW based schemes


 Python interface
   PLUGINS active      =      F    recompile with -DPLUGINS to activate
 
 Dipole corrections
   LMONO      =      F    monopole corrections only (constant potential shift)
   LDIPOL     =      F    correct potential (dipole corrections)
   IDIPOL     =      0    1-x, 2-y, 3-z, 4-all directions 
   EPSILON    =  1.0000000 bulk dielectric constant
   LVACPOTAV  =      F  vacuum potentials using an averaging scheme for the charge density
   VACPOTFLAT =  0.1000000 required flatness to determine vacuum potential
 
Coulomb truncation method
  LTRUNCATE          =      F  Coulomb kernel truncation to be used

 
 Exchange correlation treatment:
   GGA     = PE    functional components
   XC_C    = 1    coefficients multiplying the functional components
   LIBXC   =     F    Libxc                    
   VOSKOWN =     0    Vosko Wilk Nusair interpolation
   LHFCALC =     F    Hartree Fock is set to
   LHFONE  =     F    Hartree Fock one center treatment
   AEXX    =    0.0000 exact exchange contribution

 Parameters of functionals:
   PE:
     No parameter
 
 Van der Waals corrections
   IVDW    =     0    specifies the selected vdW correction

 Linear response parameters
   LEPSILON=     F    determine dielectric tensor
   LRPA    =     F    only Hartree local field effects (RPA)
   LNABLA  =     F    use nabla operator in PAW spheres
   LVEL    =     F    velocity operator in full k-point grid
   CSHIFT  =0.1000    complex shift for real part using Kramers Kronig
   OMEGAMAX=  -1.0    maximum frequency
   DEG_THRESHOLD= 0.2000000E-02 threshold for treating states as degnerate
   RTIME   =   -0.100 relaxation time in fs
  (WPLASMAI=    0.000 imaginary part of plasma frequency in eV, 0.658/RTIME)
   DFIELD  = 0.0000000 0.0000000 0.0000000 field for delta impulse in time
 
  Optional k-point grid parameters
   LKPOINTS_OPT  =     F    use optional k-point grid
   KPOINTS_OPT_MODE=     1    mode for optional k-point grid
 
 Orbital magnetization related:
   ORBITALMAG=     F  switch on orbital magnetization
   LCHIMAG   =     F  perturbation theory with respect to B field
   DQ        =  0.001000  dq finite difference perturbation B field
   LLRAUG    =     F  two centre corrections for induced B field
   LBONE     =     F  B-component reconstruction in AE one-centre
   LVGVCALC  =     T  calculate vGv susceptibility
   LVGVAPPL  =     F  apply vGv susceptibility instead of pGv for G=0

 Random number generation:
   RANDOM_GENERATOR = DEFAULT
   PCG_SEED         = not used


--------------------------------------------------------------------------------------------------------


 Static calculation
 charge density and potential will be updated during run
 spin polarized calculation
 Variant of blocked Davidson
 Davidson routine will perform the subspace rotation
 perform sub-space diagonalisation
    after iterative eigenvector-optimisation
 modified Broyden-mixing scheme, WC =      100.0
 initial mixing is a Kerker type mixing with AMIX =  0.4000 and BMIX =      1.0000
 Hartree-type preconditioning will be used
 using additional bands           15
 reciprocal scheme for non local part
 use partial core corrections
 calculate Harris-corrections to forces 
   (improved forces if not selfconsistent)
 use gradient corrections 
 use of overlap-Matrix (Vanderbilt PP)
 Gauss-broadening in eV      SIGMA  =   0.05


--------------------------------------------------------------------------------------------------------


  energy-cutoff  :      500.00
  volume of cell :      747.98
      direct lattice vectors                 reciprocal lattice vectors
     6.154088000 -0.002745000  0.000611000     0.162535521  0.093943719 -0.000034071
    -3.079421000  5.327821000  0.000675000     0.000083745  0.187742402 -0.000035214
     0.002310000  0.004279000 22.818631000    -0.000004355 -0.000008069  0.043823840

  length of vectors
     6.154088643  6.153739575 22.818631518     0.187731774  0.187742424  0.043823841


 
 k-points in units of 2pi/SCALE and weight: Automatic mesh                          
   0.01355106  0.02347283  0.00547221       0.014
   0.04064031  0.03913012  0.00546653       0.014
   0.06772957  0.05478741  0.00546085       0.014
  -0.06771670 -0.02349902  0.00548924       0.014
  -0.04062745 -0.00784174  0.00548356       0.014
  -0.01353819  0.00781555  0.00547788       0.014
   0.01356502  0.05476324  0.00546634       0.014
   0.04065427  0.07042052  0.00546066       0.014
   0.06774353  0.08607781  0.00545498       0.014
  -0.06770274  0.00779138  0.00548337       0.014
  -0.04061349  0.02344866  0.00547769       0.014
  -0.01352423  0.03910595  0.00547202       0.014
   0.01357898  0.08605364  0.00546047       0.014
   0.04066823  0.10171092  0.00545479       0.014
   0.06775748  0.11736821  0.00544911       0.014
  -0.06768878  0.03908178  0.00547750       0.014
  -0.04059953  0.05473906  0.00547183       0.014
  -0.01351028  0.07039635  0.00546615       0.014
   0.01350919 -0.07039837  0.00548981       0.014
   0.04059844 -0.05474108  0.00548414       0.014
   0.06768770 -0.03908379  0.00547846       0.014
  -0.06775857 -0.11737023  0.00550685       0.014
  -0.04066932 -0.10171294  0.00550117       0.014
  -0.01358006 -0.08605565  0.00549549       0.014
   0.01352315 -0.03910797  0.00548394       0.014
   0.04061240 -0.02345068  0.00547827       0.014
   0.06770165 -0.00779339  0.00547259       0.014
  -0.06774461 -0.08607983  0.00550098       0.014
  -0.04065536 -0.07042254  0.00549530       0.014
  -0.01356611 -0.05476525  0.00548962       0.014
   0.01353710 -0.00781757  0.00547808       0.014
   0.04062636  0.00783972  0.00547240       0.014
   0.06771561  0.02349701  0.00546672       0.014
  -0.06773066 -0.05478942  0.00549511       0.014
  -0.04064140 -0.03913214  0.00548943       0.014
  -0.01355215 -0.02347485  0.00548375       0.014
   0.01354997  0.02347082  0.01642817       0.014
   0.04063923  0.03912810  0.01642249       0.014
   0.06772848  0.05478539  0.01641681       0.014
  -0.06771779 -0.02350104  0.01644520       0.014
  -0.04062853 -0.00784376  0.01643952       0.014
  -0.01353928  0.00781353  0.01643384       0.014
   0.01356393  0.05476122  0.01642230       0.014
   0.04065318  0.07041850  0.01641662       0.014
   0.06774244  0.08607579  0.01641094       0.014
  -0.06770383  0.00778936  0.01643933       0.014
  -0.04061458  0.02344664  0.01643365       0.014
  -0.01352532  0.03910393  0.01642798       0.014
   0.01357789  0.08605162  0.01641643       0.014
   0.04066714  0.10170890  0.01641075       0.014
   0.06775639  0.11736619  0.01640507       0.014
  -0.06768987  0.03907976  0.01643346       0.014
  -0.04060062  0.05473705  0.01642779       0.014
  -0.01351137  0.07039433  0.01642211       0.014
   0.01350810 -0.07040038  0.01644577       0.014
   0.04059735 -0.05474310  0.01644010       0.014
   0.06768661 -0.03908581  0.01643442       0.014
  -0.06775966 -0.11737224  0.01646281       0.014
  -0.04067041 -0.10171496  0.01645713       0.014
  -0.01358115 -0.08605767  0.01645145       0.014
   0.01352206 -0.03910998  0.01643990       0.014
   0.04061131 -0.02345270  0.01643423       0.014
   0.06770056 -0.00779541  0.01642855       0.014
  -0.06774570 -0.08608184  0.01645694       0.014
  -0.04065645 -0.07042456  0.01645126       0.014
  -0.01356720 -0.05476727  0.01644558       0.014
   0.01353601 -0.00781958  0.01643404       0.014
   0.04062527  0.00783770  0.01642836       0.014
   0.06771452  0.02349499  0.01642268       0.014
  -0.06773175 -0.05479144  0.01645107       0.014
  -0.04064249 -0.03913416  0.01644539       0.014
  -0.01355324 -0.02347687  0.01643971       0.014
 
 k-points in reciprocal lattice and weights: Automatic mesh                          
   0.08333333  0.08333333  0.12500000       0.014
   0.25000000  0.08333333  0.12500000       0.014
   0.41666667  0.08333333  0.12500000       0.014
  -0.41666667  0.08333333  0.12500000       0.014
  -0.25000000  0.08333333  0.12500000       0.014
  -0.08333333  0.08333333  0.12500000       0.014
   0.08333333  0.25000000  0.12500000       0.014
   0.25000000  0.25000000  0.12500000       0.014
   0.41666667  0.25000000  0.12500000       0.014
  -0.41666667  0.25000000  0.12500000       0.014
  -0.25000000  0.25000000  0.12500000       0.014
  -0.08333333  0.25000000  0.12500000       0.014
   0.08333333  0.41666667  0.12500000       0.014
   0.25000000  0.41666667  0.12500000       0.014
   0.41666667  0.41666667  0.12500000       0.014
  -0.41666667  0.41666667  0.12500000       0.014
  -0.25000000  0.41666667  0.12500000       0.014
  -0.08333333  0.41666667  0.12500000       0.014
   0.08333333 -0.41666667  0.12500000       0.014
   0.25000000 -0.41666667  0.12500000       0.014
   0.41666667 -0.41666667  0.12500000       0.014
  -0.41666667 -0.41666667  0.12500000       0.014
  -0.25000000 -0.41666667  0.12500000       0.014
  -0.08333333 -0.41666667  0.12500000       0.014
   0.08333333 -0.25000000  0.12500000       0.014
   0.25000000 -0.25000000  0.12500000       0.014
   0.41666667 -0.25000000  0.12500000       0.014
  -0.41666667 -0.25000000  0.12500000       0.014
  -0.25000000 -0.25000000  0.12500000       0.014
  -0.08333333 -0.25000000  0.12500000       0.014
   0.08333333 -0.08333333  0.12500000       0.014
   0.25000000 -0.08333333  0.12500000       0.014
   0.41666667 -0.08333333  0.12500000       0.014
  -0.41666667 -0.08333333  0.12500000       0.014
  -0.25000000 -0.08333333  0.12500000       0.014
  -0.08333333 -0.08333333  0.12500000       0.014
   0.08333333  0.08333333  0.37500000       0.014
   0.25000000  0.08333333  0.37500000       0.014
   0.41666667  0.08333333  0.37500000       0.014
  -0.41666667  0.08333333  0.37500000       0.014
  -0.25000000  0.08333333  0.37500000       0.014
  -0.08333333  0.08333333  0.37500000       0.014
   0.08333333  0.25000000  0.37500000       0.014
   0.25000000  0.25000000  0.37500000       0.014
   0.41666667  0.25000000  0.37500000       0.014
  -0.41666667  0.25000000  0.37500000       0.014
  -0.25000000  0.25000000  0.37500000       0.014
  -0.08333333  0.25000000  0.37500000       0.014
   0.08333333  0.41666667  0.37500000       0.014
   0.25000000  0.41666667  0.37500000       0.014
   0.41666667  0.41666667  0.37500000       0.014
  -0.41666667  0.41666667  0.37500000       0.014
  -0.25000000  0.41666667  0.37500000       0.014
  -0.08333333  0.41666667  0.37500000       0.014
   0.08333333 -0.41666667  0.37500000       0.014
   0.25000000 -0.41666667  0.37500000       0.014
   0.41666667 -0.41666667  0.37500000       0.014
  -0.41666667 -0.41666667  0.37500000       0.014
  -0.25000000 -0.41666667  0.37500000       0.014
  -0.08333333 -0.41666667  0.37500000       0.014
   0.08333333 -0.25000000  0.37500000       0.014
   0.25000000 -0.25000000  0.37500000       0.014
   0.41666667 -0.25000000  0.37500000       0.014
  -0.41666667 -0.25000000  0.37500000       0.014
  -0.25000000 -0.25000000  0.37500000       0.014
  -0.08333333 -0.25000000  0.37500000       0.014
   0.08333333 -0.08333333  0.37500000       0.014
   0.25000000 -0.08333333  0.37500000       0.014
   0.41666667 -0.08333333  0.37500000       0.014
  -0.41666667 -0.08333333  0.37500000       0.014
  -0.25000000 -0.08333333  0.37500000       0.014
  -0.08333333 -0.08333333  0.37500000       0.014
 
 position of ions in fractional coordinates (direct lattice) 
   0.66673659  0.33327152  0.50000103
   0.99993200  0.00005715  0.49999678
   0.33303677  0.02431524  0.55991412
   0.97615759  0.30949873  0.55971000
   0.69101020  0.66638828  0.55992133
   0.69052433  0.02381943  0.44029028
   0.33361264  0.30901660  0.44008514
   0.97565723  0.66696118  0.44007979
 
 position of ions in cartesian coordinates  (Angst):
   3.07802737  1.77592029 11.40997144
   6.15464853 -0.00030084 11.40985301
   1.97595415  0.13102893 12.77669369
   5.05557573  1.64866927 12.77262120
   2.20174096  3.55089654 12.77751016
   4.17721451  0.12689416 10.04725942
   1.10250590  1.64735251 10.04255288
   3.95144280  3.55265468 10.04306474
 


--------------------------------------------------------------------------------------------------------


 k-point     1 :   0.0833 0.0833 0.1250  plane waves:   18977
 k-point     2 :   0.2500 0.0833 0.1250  plane waves:   18983
 k-point     3 :   0.4167 0.0833 0.1250  plane waves:   19003
 k-point     4 :  -0.4167 0.0833 0.1250  plane waves:   19000
 k-point     5 :  -0.2500 0.0833 0.1250  plane waves:   18973
 k-point     6 :  -0.0833 0.0833 0.1250  plane waves:   18998
 k-point     7 :   0.0833 0.2500 0.1250  plane waves:   18981
 k-point     8 :   0.2500 0.2500 0.1250  plane waves:   18979
 k-point     9 :   0.4167 0.2500 0.1250  plane waves:   19006
 k-point    10 :  -0.4167 0.2500 0.1250  plane waves:   18977
 k-point    11 :  -0.2500 0.2500 0.1250  plane waves:   18968
 k-point    12 :  -0.0833 0.2500 0.1250  plane waves:   18969
 k-point    13 :   0.0833 0.4167 0.1250  plane waves:   19003
 k-point    14 :   0.2500 0.4167 0.1250  plane waves:   19007
 k-point    15 :   0.4167 0.4167 0.1250  plane waves:   18998
 k-point    16 :  -0.4167 0.4167 0.1250  plane waves:   18978
 k-point    17 :  -0.2500 0.4167 0.1250  plane waves:   18977
 k-point    18 :  -0.0833 0.4167 0.1250  plane waves:   19000
 k-point    19 :   0.0833-0.4167 0.1250  plane waves:   19000
 k-point    20 :   0.2500-0.4167 0.1250  plane waves:   18977
 k-point    21 :   0.4167-0.4167 0.1250  plane waves:   18979
 k-point    22 :  -0.4167-0.4167 0.1250  plane waves:   19005
 k-point    23 :  -0.2500-0.4167 0.1250  plane waves:   19009
 k-point    24 :  -0.0833-0.4167 0.1250  plane waves:   19002
 k-point    25 :   0.0833-0.2500 0.1250  plane waves:   18972
 k-point    26 :   0.2500-0.2500 0.1250  plane waves:   18970
 k-point    27 :   0.4167-0.2500 0.1250  plane waves:   18976
 k-point    28 :  -0.4167-0.2500 0.1250  plane waves:   19008
 k-point    29 :  -0.2500-0.2500 0.1250  plane waves:   18972
 k-point    30 :  -0.0833-0.2500 0.1250  plane waves:   18982
 k-point    31 :   0.0833-0.0833 0.1250  plane waves:   18998
 k-point    32 :   0.2500-0.0833 0.1250  plane waves:   18969
 k-point    33 :   0.4167-0.0833 0.1250  plane waves:   19000
 k-point    34 :  -0.4167-0.0833 0.1250  plane waves:   19001
 k-point    35 :  -0.2500-0.0833 0.1250  plane waves:   18982
 k-point    36 :  -0.0833-0.0833 0.1250  plane waves:   18983
 k-point    37 :   0.0833 0.0833 0.3750  plane waves:   18984
 k-point    38 :   0.2500 0.0833 0.3750  plane waves:   18973
 k-point    39 :   0.4167 0.0833 0.3750  plane waves:   19006
 k-point    40 :  -0.4167 0.0833 0.3750  plane waves:   18990
 k-point    41 :  -0.2500 0.0833 0.3750  plane waves:   18967
 k-point    42 :  -0.0833 0.0833 0.3750  plane waves:   19011
 k-point    43 :   0.0833 0.2500 0.3750  plane waves:   18974
 k-point    44 :   0.2500 0.2500 0.3750  plane waves:   19000
 k-point    45 :   0.4167 0.2500 0.3750  plane waves:   19012
 k-point    46 :  -0.4167 0.2500 0.3750  plane waves:   18985
 k-point    47 :  -0.2500 0.2500 0.3750  plane waves:   18986
 k-point    48 :  -0.0833 0.2500 0.3750  plane waves:   18969
 k-point    49 :   0.0833 0.4167 0.3750  plane waves:   19008
 k-point    50 :   0.2500 0.4167 0.3750  plane waves:   19010
 k-point    51 :   0.4167 0.4167 0.3750  plane waves:   18997
 k-point    52 :  -0.4167 0.4167 0.3750  plane waves:   18971
 k-point    53 :  -0.2500 0.4167 0.3750  plane waves:   18976
 k-point    54 :  -0.0833 0.4167 0.3750  plane waves:   18991
 k-point    55 :   0.0833-0.4167 0.3750  plane waves:   18989
 k-point    56 :   0.2500-0.4167 0.3750  plane waves:   18984
 k-point    57 :   0.4167-0.4167 0.3750  plane waves:   18973
 k-point    58 :  -0.4167-0.4167 0.3750  plane waves:   18993
 k-point    59 :  -0.2500-0.4167 0.3750  plane waves:   19013
 k-point    60 :  -0.0833-0.4167 0.3750  plane waves:   19005
 k-point    61 :   0.0833-0.2500 0.3750  plane waves:   18967
 k-point    62 :   0.2500-0.2500 0.3750  plane waves:   18987
 k-point    63 :   0.4167-0.2500 0.3750  plane waves:   18978
 k-point    64 :  -0.4167-0.2500 0.3750  plane waves:   19013
 k-point    65 :  -0.2500-0.2500 0.3750  plane waves:   18997
 k-point    66 :  -0.0833-0.2500 0.3750  plane waves:   18969
 k-point    67 :   0.0833-0.0833 0.3750  plane waves:   19010
 k-point    68 :   0.2500-0.0833 0.3750  plane waves:   18969
 k-point    69 :   0.4167-0.0833 0.3750  plane waves:   18989
 k-point    70 :  -0.4167-0.0833 0.3750  plane waves:   19005
 k-point    71 :  -0.2500-0.0833 0.3750  plane waves:   18969
 k-point    72 :  -0.0833-0.0833 0.3750  plane waves:   18983

 maximum and minimum number of plane-waves per node :     19013    18967

 maximum number of plane-waves:     19013
 maximum index in each direction: 
   IXMAX=   11   IYMAX=   11   IZMAX=   41
   IXMIN=  -11   IYMIN=  -11   IZMIN=  -41


 serial   3D FFT for wavefunctions
 parallel 3D FFT for charge:
    minimum data exchange during FFTs selected (reduces bandwidth)


 total amount of memory used by VASP MPI-rank0   514721. kBytes
=======================================================================

   base                                    :      30000. kBytes
   nonl-proj                               :     396958. kBytes
   fftplans                                :       4669. kBytes
   grid                                    :      38817. kBytes
   one-center                              :        248. kBytes
   wavefun                                 :      44029. kBytes
 
     INWAV:  cpu time      0.0000: real time      0.0000
 Broyden mixing: mesh for mixing (old mesh)
   NGX = 23   NGY = 23   NGZ = 83
  (NGX  = 96   NGY  = 96   NGZ  =336)
  gives a total of  43907 points

 initial charge density was supplied:
 charge density of overlapping atoms calculated
 number of electron      54.0000000 magnetization       9.6000000
 keeping initial charge density in first step


--------------------------------------------------------------------------------------------------------


 Maximum index for augmentation-charges         1548 (set IRDMAX)


--------------------------------------------------------------------------------------------------------


 First call to EWALD:  gamma=   0.195
 Maximum number of real-space cells   4x   4x   1
 Maximum number of reciprocal cells   2x   2x   6

    FEWALD:  cpu time      0.1010: real time      0.6060


--------------------------------------- Ionic step        1  -------------------------------------------




--------------------------------------- Iteration      1(   1)  ---------------------------------------


    POTLOK:  cpu time      1.1761: real time      7.0399
    SETDIJ:  cpu time      0.1645: real time      1.0051
     EDDAV:  cpu time    178.9540: real time   1064.4090
       DOS:  cpu time      0.5406: real time      3.2371
    --------------------------------------------
      LOOP:  cpu time    180.8353: real time   1075.6911

 eigenvalue-minimisations  : 12096
 total energy-change (2. order) : 0.4300568E+03  (-0.1817521E+04)
 number of electron      54.0000000 magnetization       9.6000000
 augmentation part       54.0000000 magnetization       9.6000000

 Free energy of the ion-electron system (eV)
  ---------------------------------------------------
  alpha Z        PSCENC =        23.01523305
  Ewald energy   TEWEN  =      7534.95570762
  -Hartree energ DENC   =    -10194.69169658
  -exchange      EXHF   =         0.00000000
  -V(xc)+E(xc)   XCENC  =        82.16018578
  PAW double counting   =      2504.62862977    -2465.96035111
  entropy T*S    EENTRO =        -0.00802011
  eigenvalues    EBANDS =       -66.14959504
  atomic energy  EATOM  =      3012.10669636
  Solvation  Ediel_sol  =         0.00000000
  ---------------------------------------------------
  free energy    TOTEN  =       430.05678975 eV

  energy without entropy =      430.06480985  energy(sigma->0) =      430.06079980


--------------------------------------------------------------------------------------------------------




--------------------------------------- Iteration      1(   2)  ---------------------------------------


     EDDAV:  cpu time    258.4267: real time   1550.7059
       DOS:  cpu time      0.5815: real time      3.4892
    --------------------------------------------
      LOOP:  cpu time    259.0082: real time   1554.1952

 eigenvalue-minimisations  : 19824
 total energy-change (2. order) :-0.4254264E+03  (-0.4240136E+03)
 number of electron      54.0000000 magnetization       9.6000000
 augmentation part       54.0000000 magnetization       9.6000000

 Free energy of the ion-electron system (eV)
  ---------------------------------------------------
  alpha Z        PSCENC =        23.01523305
  Ewald energy   TEWEN  =      7534.95570762
  -Hartree energ DENC   =    -10194.69169658
  -exchange      EXHF   =         0.00000000
  -V(xc)+E(xc)   XCENC  =        82.16018578
  PAW double counting   =      2504.62862977    -2465.96035111
  entropy T*S    EENTRO =        -0.00295080
  eigenvalues    EBANDS =      -491.58106558
  atomic energy  EATOM  =      3012.10669636
  Solvation  Ediel_sol  =         0.00000000
  ---------------------------------------------------
  free energy    TOTEN  =         4.63038852 eV

  energy without entropy =        4.63333932  energy(sigma->0) =        4.63186392


--------------------------------------------------------------------------------------------------------




--------------------------------------- Iteration      1(   3)  ---------------------------------------


     EDDAV:  cpu time    186.2763: real time   1117.5678
       DOS:  cpu time      0.1914: real time      1.1541
    --------------------------------------------
      LOOP:  cpu time    186.4677: real time   1118.7218

 eigenvalue-minimisations  : 12726
 total energy-change (2. order) :-0.4655382E+02  (-0.4614727E+02)
 number of electron      54.0000000 magnetization       9.6000000
 augmentation part       54.0000000 magnetization       9.6000000

 Free energy of the ion-electron system (eV)
  ---------------------------------------------------
  alpha Z        PSCENC =        23.01523305
  Ewald energy   TEWEN  =      7534.95570762
  -Hartree energ DENC   =    -10194.69169658
  -exchange      EXHF   =         0.00000000
  -V(xc)+E(xc)   XCENC  =        82.16018578
  PAW double counting   =      2504.62862977    -2465.96035111
  entropy T*S    EENTRO =        -0.00000000
  eigenvalues    EBANDS =      -538.13783949
  atomic energy  EATOM  =      3012.10669636
  Solvation  Ediel_sol  =         0.00000000
  ---------------------------------------------------
  free energy    TOTEN  =       -41.92343460 eV

  energy without entropy =      -41.92343460  energy(sigma->0) =      -41.92343460


--------------------------------------------------------------------------------------------------------




--------------------------------------- Iteration      1(   4)  ---------------------------------------


     EDDAV:  cpu time    300.8824: real time   1805.1219
       DOS:  cpu time      0.1775: real time      1.0620
    --------------------------------------------
      LOOP:  cpu time    301.0599: real time   1806.1839

 eigenvalue-minimisations  : 23940
 total energy-change (2. order) :-0.1048500E+01  (-0.1048500E+01)
 number of electron      54.0000000 magnetization       9.6000000
 augmentation part       54.0000000 magnetization       9.6000000

 Free energy of the ion-electron system (eV)
  ---------------------------------------------------
  alpha Z        PSCENC =        23.01523305
  Ewald energy   TEWEN  =      7534.95570762
  -Hartree energ DENC   =    -10194.69169658
  -exchange      EXHF   =         0.00000000
  -V(xc)+E(xc)   XCENC  =        82.16018578
  PAW double counting   =      2504.62862977    -2465.96035111
  entropy T*S    EENTRO =        -0.00000000
  eigenvalues    EBANDS =      -539.18633999
  atomic energy  EATOM  =      3012.10669636
  Solvation  Ediel_sol  =         0.00000000
  ---------------------------------------------------
  free energy    TOTEN  =       -42.97193509 eV

  energy without entropy =      -42.97193509  energy(sigma->0) =      -42.97193509


--------------------------------------------------------------------------------------------------------




--------------------------------------- Iteration      1(   5)  ---------------------------------------


     EDDAV:  cpu time    253.2660: real time   1519.3160
       DOS:  cpu time      0.1999: real time      1.1891
    CHARGE:  cpu time      6.3066: real time     38.1578
    MIXING:  cpu time      0.1748: real time      1.0310
    --------------------------------------------
      LOOP:  cpu time    259.9473: real time   1559.6940

 eigenvalue-minimisations  : 19026
 total energy-change (2. order) :-0.1181723E-02  (-0.1181723E-02)
 number of electron      54.0000002 magnetization       9.1940582
 augmentation part       -2.1444629 magnetization       6.5255495

 Broyden mixing:
  rms(total) = 0.19203E+01    rms(broyden)= 0.19203E+01
  rms(prec ) = 0.20238E+01
  weight for this iteration     100.00

 Free energy of the ion-electron system (eV)
  ---------------------------------------------------
  alpha Z        PSCENC =        23.01523305
  Ewald energy   TEWEN  =      7534.95570762
  -Hartree energ DENC   =    -10194.69169658
  -exchange      EXHF   =         0.00000000
  -V(xc)+E(xc)   XCENC  =        82.16018578
  PAW double counting   =      2504.62862977    -2465.96035111
  entropy T*S    EENTRO =        -0.00000000
  eigenvalues    EBANDS =      -539.18752171
  atomic energy  EATOM  =      3012.10669636
  Solvation  Ediel_sol  =         0.00000000
  ---------------------------------------------------
  free energy    TOTEN  =       -42.97311682 eV

  energy without entropy =      -42.97311682  energy(sigma->0) =      -42.97311682


--------------------------------------------------------------------------------------------------------




--------------------------------------- Iteration      1(   6)  ---------------------------------------


    POTLOK:  cpu time      1.2536: real time      7.5210
    SETDIJ:  cpu time      0.1639: real time      0.9960
     EDDAV:  cpu time    265.8456: real time   1594.6520
       DOS:  cpu time      0.1819: real time      1.0946
    CHARGE:  cpu time      6.6782: real time     40.3574
    MIXING:  cpu time      0.2445: real time      1.4511
    --------------------------------------------
      LOOP:  cpu time    274.3678: real time   1646.0721

 eigenvalue-minimisations  : 20664
 total energy-change (2. order) : 0.6283970E+01  (-0.1133274E+02)
 number of electron      54.0000001 magnetization       9.0280674
 augmentation part        1.1074149 magnetization       7.1819314

 Broyden mixing:
  rms(total) = 0.21160E+01    rms(broyden)= 0.21160E+01
  rms(prec ) = 0.21987E+01
  weight for this iteration     100.00

 eigenvalues of (default mixing * dielectric matrix)
  average eigenvalue GAMMA=   0.3326
  0.3326

 Free energy of the ion-electron system (eV)
  ---------------------------------------------------
  alpha Z        PSCENC =        23.01523305
  Ewald energy   TEWEN  =      7534.95570762
  -Hartree energ DENC   =    -10179.49133812
  -exchange      EXHF   =         0.00000000
  -V(xc)+E(xc)   XCENC  =        88.21442665
  PAW double counting   =      2809.24557741    -2766.45422796
  entropy T*S    EENTRO =        -0.00000000
  eigenvalues    EBANDS =      -558.28122143
  atomic energy  EATOM  =      3012.10669636
  Solvation  Ediel_sol  =         0.00000000
  ---------------------------------------------------
  free energy    TOTEN  =       -36.68914641 eV

  energy without entropy =      -36.68914641  energy(sigma->0) =      -36.68914641


--------------------------------------------------------------------------------------------------------




--------------------------------------- Iteration      1(   7)  ---------------------------------------


    POTLOK:  cpu time      1.2701: real time      7.6139
    SETDIJ:  cpu time      0.1126: real time      0.6636
     EDDAV:  cpu time    233.9105: real time   1379.5614
       DOS:  cpu time      0.1931: real time      0.9702
    CHARGE:  cpu time      6.6889: real time     33.4789
    MIXING:  cpu time      0.2461: real time      1.2120
    --------------------------------------------
      LOOP:  cpu time    242.4212: real time   1423.5000

 eigenvalue-minimisations  : 17640
 total energy-change (2. order) : 0.2276640E+01  (-0.3903150E+01)
 number of electron      54.0000001 magnetization       8.6091350
 augmentation part       -0.7802701 magnetization       6.6687427

 Broyden mixing:
  rms(total) = 0.89154E+00    rms(broyden)= 0.89154E+00
  rms(prec ) = 0.89920E+00
  weight for this iteration     100.00

 eigenvalues of (default mixing * dielectric matrix)
  average eigenvalue GAMMA=   0.7260
  1.0881  0.3640

 Free energy of the ion-electron system (eV)
  ---------------------------------------------------
  alpha Z        PSCENC =        23.01523305
  Ewald energy   TEWEN  =      7534.95570762
  -Hartree energ DENC   =    -10191.70464253
  -exchange      EXHF   =         0.00000000
  -V(xc)+E(xc)   XCENC  =        87.96391006
  PAW double counting   =      2978.93383244    -2939.20925325
  entropy T*S    EENTRO =        -0.00000000
  eigenvalues    EBANDS =      -540.47398974
  atomic energy  EATOM  =      3012.10669636
  Solvation  Ediel_sol  =         0.00000000
  ---------------------------------------------------
  free energy    TOTEN  =       -34.41250598 eV

  energy without entropy =      -34.41250598  energy(sigma->0) =      -34.41250598


--------------------------------------------------------------------------------------------------------




--------------------------------------- Iteration      1(   8)  ---------------------------------------


    POTLOK:  cpu time      1.1498: real time      5.7462
    SETDIJ:  cpu time      0.1289: real time      0.6608
     EDDAV:  cpu time    247.8180: real time   1239.1041
       DOS:  cpu time      0.1750: real time      0.8685
    CHARGE:  cpu time      6.9159: real time     34.5682
    MIXING:  cpu time      0.2704: real time      1.3532
    --------------------------------------------
      LOOP:  cpu time    256.4580: real time   1282.3009

 eigenvalue-minimisations  : 18942
 total energy-change (2. order) :-0.3599820E+00  (-0.9309390E-01)
 number of electron      54.0000001 magnetization       8.0959223
 augmentation part       -0.6489777 magnetization       6.2578853

 Broyden mixing:
  rms(total) = 0.41118E+00    rms(broyden)= 0.41118E+00
  rms(prec ) = 0.41554E+00
  weight for this iteration     100.00

 eigenvalues of (default mixing * dielectric matrix)
  average eigenvalue GAMMA=   1.0180
  1.9150  0.7456  0.3935

 Free energy of the ion-electron system (eV)
  ---------------------------------------------------
  alpha Z        PSCENC =        23.01523305
  Ewald energy   TEWEN  =      7534.95570762
  -Hartree energ DENC   =    -10196.85735554
  -exchange      EXHF   =         0.00000000
  -V(xc)+E(xc)   XCENC  =        88.30014769
  PAW double counting   =      3299.96584773    -3261.43053623
  entropy T*S    EENTRO =        -0.00000000
  eigenvalues    EBANDS =      -534.82822870
  atomic energy  EATOM  =      3012.10669636
  Solvation  Ediel_sol  =         0.00000000
  ---------------------------------------------------
  free energy    TOTEN  =       -34.77248802 eV

  energy without entropy =      -34.77248802  energy(sigma->0) =      -34.77248802


--------------------------------------------------------------------------------------------------------




--------------------------------------- Iteration      1(   9)  ---------------------------------------


    POTLOK:  cpu time      1.1723: real time      5.8496
    SETDIJ:  cpu time      0.1285: real time      0.6475
     EDDAV:  cpu time    263.8297: real time   1319.1278
       DOS:  cpu time      0.1596: real time      0.7821
    CHARGE:  cpu time      6.8403: real time     34.1927
    MIXING:  cpu time      0.2773: real time      1.4012
    --------------------------------------------
      LOOP:  cpu time    272.4077: real time   1362.0010

 eigenvalue-minimisations  : 20370
 total energy-change (2. order) :-0.1364973E+01  (-0.1109651E+00)
 number of electron      54.0000001 magnetization       7.8108471
 augmentation part       -0.4036329 magnetization       6.0430448

 Broyden mixing:
  rms(total) = 0.18140E+00    rms(broyden)= 0.18140E+00
  rms(prec ) = 0.18700E+00
  weight for this iteration     100.00

 eigenvalues of (default mixing * dielectric matrix)
  average eigenvalue GAMMA=   1.1002
  2.3343  1.0155  0.4016  0.6492

 Free energy of the ion-electron system (eV)
  ---------------------------------------------------
  alpha Z        PSCENC =        23.01523305
  Ewald energy   TEWEN  =      7534.95570762
  -Hartree energ DENC   =    -10201.51102182
  -exchange      EXHF   =         0.00000000
  -V(xc)+E(xc)   XCENC  =        87.87635283
  PAW double counting   =      3545.91014350    -3508.09697859
  entropy T*S    EENTRO =        -0.00000000
  eigenvalues    EBANDS =      -530.39359428
  atomic energy  EATOM  =      3012.10669636
  Solvation  Ediel_sol  =         0.00000000
  ---------------------------------------------------
  free energy    TOTEN  =       -36.13746132 eV

  energy without entropy =      -36.13746132  energy(sigma->0) =      -36.13746132


--------------------------------------------------------------------------------------------------------




--------------------------------------- Iteration      1(  10)  ---------------------------------------


    POTLOK:  cpu time      1.1354: real time      5.6682
    SETDIJ:  cpu time      0.1605: real time      0.8059
     EDDAV:  cpu time    251.9998: real time   1260.0128
       DOS:  cpu time      0.1774: real time      0.8743
    CHARGE:  cpu time      6.8467: real time     34.2318
    MIXING:  cpu time      0.3029: real time      1.5202
    --------------------------------------------
      LOOP:  cpu time    260.6227: real time   1303.1132

 eigenvalue-minimisations  : 19278
 total energy-change (2. order) :-0.6781439E+00  (-0.3189081E-01)
 number of electron      54.0000001 magnetization       7.3940770
 augmentation part       -0.5048224 magnetization       5.5970121

 Broyden mixing:
  rms(total) = 0.11412E+00    rms(broyden)= 0.11412E+00
  rms(prec ) = 0.11477E+00
  weight for this iteration     100.00

 eigenvalues of (default mixing * dielectric matrix)
  average eigenvalue GAMMA=   1.1314
  2.5293  1.3277  0.4008  0.7482  0.6509

 Free energy of the ion-electron system (eV)
  ---------------------------------------------------
  alpha Z        PSCENC =        23.01523305
  Ewald energy   TEWEN  =      7534.95570762
  -Hartree energ DENC   =    -10203.14341052
  -exchange      EXHF   =         0.00000000
  -V(xc)+E(xc)   XCENC  =        87.36970070
  PAW double counting   =      3580.66982532    -3543.19580699
  entropy T*S    EENTRO =        -0.00000000
  eigenvalues    EBANDS =      -528.59355079
  atomic energy  EATOM  =      3012.10669636
  Solvation  Ediel_sol  =         0.00000000
  ---------------------------------------------------
  free energy    TOTEN  =       -36.81560524 eV

  energy without entropy =      -36.81560524  energy(sigma->0) =      -36.81560524


--------------------------------------------------------------------------------------------------------




--------------------------------------- Iteration      1(  11)  ---------------------------------------


    POTLOK:  cpu time      1.2124: real time      6.0569
    SETDIJ:  cpu time      0.1590: real time      0.8000
     EDDAV:  cpu time    253.8643: real time   1269.3310
       DOS:  cpu time      0.1723: real time      0.8784
    CHARGE:  cpu time      6.9228: real time     34.6137
    MIXING:  cpu time      0.3023: real time      1.5009
    --------------------------------------------
      LOOP:  cpu time    262.6331: real time   1313.1808

 eigenvalue-minimisations  : 19572
 total energy-change (2. order) :-0.7525146E+00  (-0.2616285E-01)
 number of electron      54.0000001 magnetization       6.8713658
 augmentation part       -0.5512415 magnetization       5.0533575

 Broyden mixing:
  rms(total) = 0.90397E-01    rms(broyden)= 0.90397E-01
  rms(prec ) = 0.91275E-01
  weight for this iteration     100.00

 eigenvalues of (default mixing * dielectric matrix)
  average eigenvalue GAMMA=   1.2187
  2.6387  1.8631  1.0587  0.4005  0.6756  0.6756

 Free energy of the ion-electron system (eV)
  ---------------------------------------------------
  alpha Z        PSCENC =        23.01523305
  Ewald energy   TEWEN  =      7534.95570762
  -Hartree energ DENC   =    -10203.65577828
  -exchange      EXHF   =         0.00000000
  -V(xc)+E(xc)   XCENC  =        86.72038957
  PAW double counting   =      3606.32070202    -3568.96814778
  entropy T*S    EENTRO =        -0.00000000
  eigenvalues    EBANDS =      -528.06292237
  atomic energy  EATOM  =      3012.10669636
  Solvation  Ediel_sol  =         0.00000000
  ---------------------------------------------------
  free energy    TOTEN  =       -37.56811980 eV

  energy without entropy =      -37.56811980  energy(sigma->0) =      -37.56811980


--------------------------------------------------------------------------------------------------------




--------------------------------------- Iteration      1(  12)  ---------------------------------------


    POTLOK:  cpu time      1.1827: real time      5.9090
    SETDIJ:  cpu time      0.1543: real time      0.7771
     EDDAV:  cpu time    205.2092: real time   1025.9480
       DOS:  cpu time      0.1677: real time      0.8307
    CHARGE:  cpu time      6.7950: real time     33.9883
    MIXING:  cpu time      0.3462: real time      1.7380
    --------------------------------------------
      LOOP:  cpu time    213.8551: real time   1069.1911

 eigenvalue-minimisations  : 14742
 total energy-change (2. order) :-0.6337053E+00  (-0.2323475E-01)
 number of electron      54.0000001 magnetization       6.5171807
 augmentation part       -0.5165675 magnetization       4.7064060

 Broyden mixing:
  rms(total) = 0.61913E-01    rms(broyden)= 0.61913E-01
  rms(prec ) = 0.62227E-01
  weight for this iteration     100.00

 eigenvalues of (default mixing * dielectric matrix)
  average eigenvalue GAMMA=   1.3123
  2.6408  2.6408  1.3449  0.4004  0.8338  0.6627  0.6627

 Free energy of the ion-electron system (eV)
  ---------------------------------------------------
  alpha Z        PSCENC =        23.01523305
  Ewald energy   TEWEN  =      7534.95570762
  -Hartree energ DENC   =    -10203.10415438
  -exchange      EXHF   =         0.00000000
  -V(xc)+E(xc)   XCENC  =        86.17041289
  PAW double counting   =      3593.50717626    -3556.02071061
  entropy T*S    EENTRO =        -0.00000000
  eigenvalues    EBANDS =      -528.83218632
  atomic energy  EATOM  =      3012.10669636
  Solvation  Ediel_sol  =         0.00000000
  ---------------------------------------------------
  free energy    TOTEN  =       -38.20182512 eV

  energy without entropy =      -38.20182512  energy(sigma->0) =      -38.20182512


--------------------------------------------------------------------------------------------------------




--------------------------------------- Iteration      1(  13)  ---------------------------------------


    POTLOK:  cpu time      1.2132: real time      6.0618
    SETDIJ:  cpu time      0.1492: real time      0.7452
     EDDAV:  cpu time    240.1370: real time   1200.6390
       DOS:  cpu time      0.1865: real time      0.9253
    CHARGE:  cpu time      7.0693: real time     35.3555
    MIXING:  cpu time      0.3488: real time      1.7463
    --------------------------------------------
      LOOP:  cpu time    249.1040: real time   1245.4730

 eigenvalue-minimisations  : 18186
 total energy-change (2. order) :-0.2852209E+00  (-0.8146891E-02)
 number of electron      54.0000001 magnetization       6.1439081
 augmentation part       -0.5188242 magnetization       4.3394305

 Broyden mixing:
  rms(total) = 0.35882E-01    rms(broyden)= 0.35881E-01
  rms(prec ) = 0.36311E-01
  weight for this iteration     100.00

 eigenvalues of (default mixing * dielectric matrix)
  average eigenvalue GAMMA=   1.6562
  5.8887  2.4910  1.3161  1.1171  0.4004  0.7446  0.6459  0.6459

 Free energy of the ion-electron system (eV)
  ---------------------------------------------------
  alpha Z        PSCENC =        23.01523305
  Ewald energy   TEWEN  =      7534.95570762
  -Hartree energ DENC   =    -10202.80774378
  -exchange      EXHF   =         0.00000000
  -V(xc)+E(xc)   XCENC  =        85.94793874
  PAW double counting   =      3570.27771296    -3532.76453431
  entropy T*S    EENTRO =        -0.00000000
  eigenvalues    EBANDS =      -529.21805671
  atomic energy  EATOM  =      3012.10669636
  Solvation  Ediel_sol  =         0.00000000
  ---------------------------------------------------
  free energy    TOTEN  =       -38.48704605 eV

  energy without entropy =      -38.48704605  energy(sigma->0) =      -38.48704605


--------------------------------------------------------------------------------------------------------




--------------------------------------- Iteration      1(  14)  ---------------------------------------


    POTLOK:  cpu time      1.1528: real time      5.7571
    SETDIJ:  cpu time      0.1615: real time      0.8239
     EDDAV:  cpu time    217.4437: real time   1087.0750
       DOS:  cpu time      0.1501: real time      0.7510
    CHARGE:  cpu time      6.9406: real time     34.7048
    MIXING:  cpu time      0.3483: real time      1.7482
    --------------------------------------------
      LOOP:  cpu time    226.1970: real time   1130.8600

 eigenvalue-minimisations  : 16002
 total energy-change (2. order) :-0.1615001E+00  (-0.6705098E-02)
 number of electron      54.0000001 magnetization       6.0549628
 augmentation part       -0.5343773 magnetization       4.2446743

 Broyden mixing:
  rms(total) = 0.19687E-01    rms(broyden)= 0.19687E-01
  rms(prec ) = 0.21198E-01
  weight for this iteration     100.00

 eigenvalues of (default mixing * dielectric matrix)
  average eigenvalue GAMMA=   1.7922
  7.7067  2.4528  1.3573  1.3573  0.4004  0.8796  0.6730  0.6730  0.6300

 Free energy of the ion-electron system (eV)
  ---------------------------------------------------
  alpha Z        PSCENC =        23.01523305
  Ewald energy   TEWEN  =      7534.95570762
  -Hartree energ DENC   =    -10202.48514089
  -exchange      EXHF   =         0.00000000
  -V(xc)+E(xc)   XCENC  =        85.77653401
  PAW double counting   =      3562.37328294    -3524.91346098
  entropy T*S    EENTRO =        -0.00000000
  eigenvalues    EBANDS =      -529.47739825
  atomic energy  EATOM  =      3012.10669636
  Solvation  Ediel_sol  =         0.00000000
  ---------------------------------------------------
  free energy    TOTEN  =       -38.64854613 eV

  energy without entropy =      -38.64854613  energy(sigma->0) =      -38.64854613


--------------------------------------------------------------------------------------------------------




--------------------------------------- Iteration      1(  15)  ---------------------------------------


    POTLOK:  cpu time      1.1361: real time      5.6666
    SETDIJ:  cpu time      0.1564: real time      0.7974
     EDDAV:  cpu time    245.5412: real time   1227.5600
       DOS:  cpu time      0.1960: real time      0.9781
    CHARGE:  cpu time      6.5950: real time     33.1867
    MIXING:  cpu time      0.3629: real time      1.8093
    --------------------------------------------
      LOOP:  cpu time    253.9877: real time   1269.9981

 eigenvalue-minimisations  : 18816
 total energy-change (2. order) :-0.1069451E+00  (-0.9175299E-03)
 number of electron      54.0000001 magnetization       6.0354254
 augmentation part       -0.5273225 magnetization       4.2251726

 Broyden mixing:
  rms(total) = 0.10128E-01    rms(broyden)= 0.10128E-01
  rms(prec ) = 0.11613E-01
  weight for this iteration     100.00

 eigenvalues of (default mixing * dielectric matrix)
  average eigenvalue GAMMA=   1.7558
  8.2800  2.4667  1.4872  1.3321  0.4004  0.8293  0.8293  0.7372  0.6310  0.5649

 Free energy of the ion-electron system (eV)
  ---------------------------------------------------
  alpha Z        PSCENC =        23.01523305
  Ewald energy   TEWEN  =      7534.95570762
  -Hartree energ DENC   =    -10202.06824783
  -exchange      EXHF   =         0.00000000
  -V(xc)+E(xc)   XCENC  =        85.66517566
  PAW double counting   =      3562.46434104    -3525.00644882
  entropy T*S    EENTRO =        -0.00000000
  eigenvalues    EBANDS =      -529.88794829
  atomic energy  EATOM  =      3012.10669636
  Solvation  Ediel_sol  =         0.00000000
  ---------------------------------------------------
  free energy    TOTEN  =       -38.75549121 eV

  energy without entropy =      -38.75549121  energy(sigma->0) =      -38.75549121


--------------------------------------------------------------------------------------------------------




--------------------------------------- Iteration      1(  16)  ---------------------------------------


    POTLOK:  cpu time      1.2199: real time      6.0750
    SETDIJ:  cpu time      0.1379: real time      0.6920
     EDDAV:  cpu time    245.6547: real time   1228.1639
       DOS:  cpu time      0.1810: real time      0.8992
    CHARGE:  cpu time      6.8714: real time     34.3439
    MIXING:  cpu time      0.3836: real time      1.9311
    --------------------------------------------
      LOOP:  cpu time    254.4485: real time   1272.1049

 eigenvalue-minimisations  : 18774
 total energy-change (2. order) :-0.1820346E-01  (-0.1170153E-03)
 number of electron      54.0000001 magnetization       6.0194128
 augmentation part       -0.5213982 magnetization       4.2108629

 Broyden mixing:
  rms(total) = 0.55777E-02    rms(broyden)= 0.55777E-02
  rms(prec ) = 0.70028E-02
  weight for this iteration     100.00

 eigenvalues of (default mixing * dielectric matrix)
  average eigenvalue GAMMA=   1.7162
  8.4724  2.4515  1.5752  1.2326  1.2326  0.9418  0.4004  0.6923  0.6923  0.6379
  0.5496

 Free energy of the ion-electron system (eV)
  ---------------------------------------------------
  alpha Z        PSCENC =        23.01523305
  Ewald energy   TEWEN  =      7534.95570762
  -Hartree energ DENC   =    -10201.59651152
  -exchange      EXHF   =         0.00000000
  -V(xc)+E(xc)   XCENC  =        85.65074390
  PAW double counting   =      3562.21987015    -3524.75095923
  entropy T*S    EENTRO =        -0.00000000
  eigenvalues    EBANDS =      -530.37447500
  atomic energy  EATOM  =      3012.10669636
  Solvation  Ediel_sol  =         0.00000000
  ---------------------------------------------------
  free energy    TOTEN  =       -38.77369467 eV

  energy without entropy =      -38.77369467  energy(sigma->0) =      -38.77369467


--------------------------------------------------------------------------------------------------------




--------------------------------------- Iteration      1(  17)  ---------------------------------------


    POTLOK:  cpu time      1.1857: real time      5.9154
    SETDIJ:  cpu time      0.1489: real time      0.7507
[...]
    --------------------------------------------
      LOOP:  cpu time    233.7620: real time   1168.7852

 eigenvalue-minimisations  : 16674
 total energy-change (2. order) :-0.8528960E-02  (-0.8474836E-04)
 number of electron      54.0000001 magnetization       6.0103432
 augmentation part       -0.5182070 magnetization       4.2027898

 Broyden mixing:
  rms(total) = 0.44142E-02    rms(broyden)= 0.44141E-02
  rms(prec ) = 0.54225E-02
  weight for this iteration     100.00

 eigenvalues of (default mixing * dielectric matrix)
  average eigenvalue GAMMA=   1.7246
  8.6171  2.2124  2.0204  2.0204  1.3049  0.4004  0.8211  0.8211  0.7589  0.6096
  0.6096  0.4995

 Free energy of the ion-electron system (eV)
  ---------------------------------------------------
  alpha Z        PSCENC =        23.01523305
  Ewald energy   TEWEN  =      7534.95570762
  -Hartree energ DENC   =    -10200.79982432
  -exchange      EXHF   =         0.00000000
  -V(xc)+E(xc)   XCENC  =        85.64032314
  PAW double counting   =      3565.24469267    -3527.77076052
  entropy T*S    EENTRO =        -0.00000000
  eigenvalues    EBANDS =      -531.17429164
  atomic energy  EATOM  =      3012.10669636
  Solvation  Ediel_sol  =         0.00000000
  ---------------------------------------------------
  free energy    TOTEN  =       -38.78222363 eV

  energy without entropy =      -38.78222363  energy(sigma->0) =      -38.78222363


--------------------------------------------------------------------------------------------------------




--------------------------------------- Iteration      1(  18)  ---------------------------------------


    POTLOK:  cpu time      1.1544: real time      5.7719
    SETDIJ:  cpu time      0.1657: real time      0.8310
     EDDAV:  cpu time    237.3486: real time   1186.6720
       DOS:  cpu time      0.1638: real time      0.8280
    CHARGE:  cpu time      6.6201: real time     33.0988
    MIXING:  cpu time      0.4053: real time      2.0351
    --------------------------------------------
      LOOP:  cpu time    245.8578: real time   1229.2368

 eigenvalue-minimisations  : 17892
 total energy-change (2. order) :-0.2076605E-02  (-0.3264801E-04)
 number of electron      54.0000001 magnetization       6.0059922
 augmentation part       -0.5187532 magnetization       4.1982496

 Broyden mixing:
  rms(total) = 0.24174E-02    rms(broyden)= 0.24174E-02
  rms(prec ) = 0.32980E-02
  weight for this iteration     100.00

 eigenvalues of (default mixing * dielectric matrix)
  average eigenvalue GAMMA=   1.7553
  8.7438  2.9430  2.6159  1.6120  1.3105  0.9884  0.9884  0.4004  0.7818  0.6899
  0.6428  0.6191  0.4824

 Free energy of the ion-electron system (eV)
  ---------------------------------------------------
  alpha Z        PSCENC =        23.01523305
  Ewald energy   TEWEN  =      7534.95570762
  -Hartree energ DENC   =    -10200.10257821
  -exchange      EXHF   =         0.00000000
  -V(xc)+E(xc)   XCENC  =        85.63172192
  PAW double counting   =      3568.01302004    -3530.54181136
  entropy T*S    EENTRO =        -0.00000000
  eigenvalues    EBANDS =      -531.86228965
  atomic energy  EATOM  =      3012.10669636
  Solvation  Ediel_sol  =         0.00000000
  ---------------------------------------------------
  free energy    TOTEN  =       -38.78430023 eV

  energy without entropy =      -38.78430023  energy(sigma->0) =      -38.78430023


--------------------------------------------------------------------------------------------------------




--------------------------------------- Iteration      1(  19)  ---------------------------------------


    POTLOK:  cpu time      1.1713: real time      5.8424
    SETDIJ:  cpu time      0.1491: real time      0.7656
     EDDAV:  cpu time    211.9875: real time   1059.9410
       DOS:  cpu time      0.1548: real time      0.7700
    CHARGE:  cpu time      6.8006: real time     34.0058
    MIXING:  cpu time      0.4178: real time      2.0832
    --------------------------------------------
      LOOP:  cpu time    220.6812: real time   1103.4080

 eigenvalue-minimisations  : 15456
 total energy-change (2. order) :-0.8743119E-03  (-0.1965235E-04)
 number of electron      54.0000001 magnetization       6.0036273
 augmentation part       -0.5207731 magnetization       4.1953274

 Broyden mixing:
  rms(total) = 0.10940E-02    rms(broyden)= 0.10940E-02
  rms(prec ) = 0.18847E-02
  weight for this iteration     100.00

 eigenvalues of (default mixing * dielectric matrix)
  average eigenvalue GAMMA=   1.7248
  8.7702  3.2031  2.5119  1.4413  1.4413  1.3799  0.9128  0.9128  0.4004  0.7210
  0.7210  0.6291  0.6198  0.4819

 Free energy of the ion-electron system (eV)
  ---------------------------------------------------
  alpha Z        PSCENC =        23.01523305
  Ewald energy   TEWEN  =      7534.95570762
  -Hartree energ DENC   =    -10199.48679784
  -exchange      EXHF   =         0.00000000
  -V(xc)+E(xc)   XCENC  =        85.62372458
  PAW double counting   =      3568.48541896    -3531.01855070
  entropy T*S    EENTRO =        -0.00000000
  eigenvalues    EBANDS =      -532.46660659
  atomic energy  EATOM  =      3012.10669636
  Solvation  Ediel_sol  =         0.00000000
  ---------------------------------------------------
  free energy    TOTEN  =       -38.78517455 eV

  energy without entropy =      -38.78517455  energy(sigma->0) =      -38.78517455


--------------------------------------------------------------------------------------------------------




--------------------------------------- Iteration      1(  20)  ---------------------------------------


    POTLOK:  cpu time      1.2426: real time      6.2072
    SETDIJ:  cpu time      0.1619: real time      0.8297
     EDDAV:  cpu time    254.0656: real time   1270.1210
       DOS:  cpu time      0.1706: real time      0.8631
    CHARGE:  cpu time      6.7249: real time     33.7346
    MIXING:  cpu time      0.3777: real time      1.8913
    --------------------------------------------
      LOOP:  cpu time    262.7432: real time   1313.6470

 eigenvalue-minimisations  : 19614
 total energy-change (2. order) :-0.6268140E-03  (-0.8032344E-05)
 number of electron      54.0000001 magnetization       6.0025751
 augmentation part       -0.5216217 magnetization       4.1939080

 Broyden mixing:
  rms(total) = 0.11767E-02    rms(broyden)= 0.11767E-02
  rms(prec ) = 0.16013E-02
  weight for this iteration     100.00

 eigenvalues of (default mixing * dielectric matrix)
  average eigenvalue GAMMA=   1.7175
  8.7724  3.2290  2.4910  1.8476  1.8476  1.2843  1.0121  1.0121  0.4004  0.7505
  0.7505  0.6405  0.6405  0.6014  0.4819

 Free energy of the ion-electron system (eV)
  ---------------------------------------------------
  alpha Z        PSCENC =        23.01523305
  Ewald energy   TEWEN  =      7534.95570762
  -Hartree energ DENC   =    -10198.94675316
  -exchange      EXHF   =         0.00000000
  -V(xc)+E(xc)   XCENC  =        85.61685915
  PAW double counting   =      3567.87986831    -3530.41469394
  entropy T*S    EENTRO =        -0.00000000
  eigenvalues    EBANDS =      -532.99871876
  atomic energy  EATOM  =      3012.10669636
  Solvation  Ediel_sol  =         0.00000000
  ---------------------------------------------------
  free energy    TOTEN  =       -38.78580136 eV

  energy without entropy =      -38.78580136  energy(sigma->0) =      -38.78580136


--------------------------------------------------------------------------------------------------------




--------------------------------------- Iteration      1(  21)  ---------------------------------------


    POTLOK:  cpu time      1.1670: real time      5.8313
    SETDIJ:  cpu time      0.1541: real time      0.7817
     EDDAV:  cpu time    242.4449: real time   1212.2171
       DOS:  cpu time      0.1904: real time      0.9591
    CHARGE:  cpu time      6.6935: real time     33.4574
    MIXING:  cpu time      0.3923: real time      1.9684
    --------------------------------------------
      LOOP:  cpu time    251.0423: real time   1255.2150

 eigenvalue-minimisations  : 18564
 total energy-change (2. order) :-0.3682213E-03  (-0.3411898E-05)
 number of electron      54.0000001 magnetization       6.0018207
 augmentation part       -0.5210300 magnetization       4.1932927

 Broyden mixing:
  rms(total) = 0.76922E-03    rms(broyden)= 0.76922E-03
  rms(prec ) = 0.10387E-02
  weight for this iteration     100.00

 eigenvalues of (default mixing * dielectric matrix)
  average eigenvalue GAMMA=   1.7264
  8.7648  3.4989  2.5159  1.9561  1.9561  1.2754  1.2754  1.0004  1.0004  0.4004
  0.8317  0.7127  0.7127  0.6249  0.6146  0.4818

 Free energy of the ion-electron system (eV)
  ---------------------------------------------------
  alpha Z        PSCENC =        23.01523305
  Ewald energy   TEWEN  =      7534.95570762
  -Hartree energ DENC   =    -10198.58305831
  -exchange      EXHF   =         0.00000000
  -V(xc)+E(xc)   XCENC  =        85.61379033
  PAW double counting   =      3567.66098452    -3530.19582870
  entropy T*S    EENTRO =        -0.00000000
  eigenvalues    EBANDS =      -533.35969446
  atomic energy  EATOM  =      3012.10669636
  Solvation  Ediel_sol  =         0.00000000
  ---------------------------------------------------
  free energy    TOTEN  =       -38.78616958 eV

  energy without entropy =      -38.78616958  energy(sigma->0) =      -38.78616958


--------------------------------------------------------------------------------------------------------




--------------------------------------- Iteration      1(  22)  ---------------------------------------


    POTLOK:  cpu time      1.1331: real time      5.6596
    SETDIJ:  cpu time      0.1335: real time      0.6765
     EDDAV:  cpu time    245.6120: real time   1227.8530
       DOS:  cpu time      0.1561: real time      0.7800
    CHARGE:  cpu time      7.1355: real time     35.7047
    MIXING:  cpu time      0.4213: real time      2.1062
    --------------------------------------------
      LOOP:  cpu time    254.5914: real time   1272.7800

 eigenvalue-minimisations  : 18732
 total energy-change (2. order) :-0.1629434E-03  (-0.2142913E-05)
 number of electron      54.0000001 magnetization       6.0009621
 augmentation part       -0.5207772 magnetization       4.1925742

 Broyden mixing:
  rms(total) = 0.44027E-03    rms(broyden)= 0.44027E-03
  rms(prec ) = 0.60441E-03
  weight for this iteration     100.00

 eigenvalues of (default mixing * dielectric matrix)
  average eigenvalue GAMMA=   1.8487
  8.7589  5.3753  2.7678  2.1583  2.1583  1.7773  1.2117  1.2117  0.9014  0.9014
  0.4004  0.7234  0.7234  0.6517  0.6121  0.6121  0.4818

 Free energy of the ion-electron system (eV)
  ---------------------------------------------------
  alpha Z        PSCENC =        23.01523305
  Ewald energy   TEWEN  =      7534.95570762
  -Hartree energ DENC   =    -10198.26360991
  -exchange      EXHF   =         0.00000000
  -V(xc)+E(xc)   XCENC  =        85.61232436
  PAW double counting   =      3567.85424049    -3530.38949571
  entropy T*S    EENTRO =        -0.00000000
  eigenvalues    EBANDS =      -533.67742880
  atomic energy  EATOM  =      3012.10669636
  Solvation  Ediel_sol  =         0.00000000
  ---------------------------------------------------
  free energy    TOTEN  =       -38.78633253 eV

  energy without entropy =      -38.78633253  energy(sigma->0) =      -38.78633253


--------------------------------------------------------------------------------------------------------




--------------------------------------- Iteration      1(  23)  ---------------------------------------


    POTLOK:  cpu time      1.1558: real time      5.7822
    SETDIJ:  cpu time      0.1539: real time      0.7818
     EDDAV:  cpu time    268.0760: real time   1340.2980
       DOS:  cpu time      0.1803: real time      0.9000
    CHARGE:  cpu time      6.7483: real time     33.7488
    MIXING:  cpu time      0.3725: real time      1.8702
    --------------------------------------------
      LOOP:  cpu time    276.6868: real time   1383.3810

 eigenvalue-minimisations  : 21126
 total energy-change (2. order) :-0.7320084E-04  (-0.8466019E-06)
 number of electron      54.0000001 magnetization       6.0006026
 augmentation part       -0.5209314 magnetization       4.1921460

 Broyden mixing:
  rms(total) = 0.23954E-03    rms(broyden)= 0.23953E-03
  rms(prec ) = 0.35317E-03
  weight for this iteration     100.00

 eigenvalues of (default mixing * dielectric matrix)
  average eigenvalue GAMMA=   1.8500
  8.7729  6.1027  2.7060  2.5602  1.8833  1.8833  1.2244  1.2244  0.9810  0.9810
  0.4004  0.7606  0.7606  0.4818  0.6948  0.6146  0.6146  0.6531

 Free energy of the ion-electron system (eV)
  ---------------------------------------------------
  alpha Z        PSCENC =        23.01523305
  Ewald energy   TEWEN  =      7534.95570762
  -Hartree energ DENC   =    -10198.06833581
  -exchange      EXHF   =         0.00000000
  -V(xc)+E(xc)   XCENC  =        85.61082033
  PAW double counting   =      3567.88696862    -3530.42287227
  entropy T*S    EENTRO =        -0.00000000
  eigenvalues    EBANDS =      -533.87062363
  atomic energy  EATOM  =      3012.10669636
  Solvation  Ediel_sol  =         0.00000000
  ---------------------------------------------------
  free energy    TOTEN  =       -38.78640573 eV

  energy without entropy =      -38.78640573  energy(sigma->0) =      -38.78640573


--------------------------------------------------------------------------------------------------------




--------------------------------------- Iteration      1(  24)  ---------------------------------------


    POTLOK:  cpu time      1.1952: real time      5.9650
    SETDIJ:  cpu time      0.1401: real time      0.7200
     EDDAV:  cpu time    256.2784: real time   1281.2999
       DOS:  cpu time      0.1713: real time      0.8622
    CHARGE:  cpu time      6.6447: real time     33.2160
    MIXING:  cpu time      0.4982: real time      2.4938
    --------------------------------------------
      LOOP:  cpu time    264.9279: real time   1324.5570

 eigenvalue-minimisations  : 19866
 total energy-change (2. order) :-0.2853219E-04  (-0.9246762E-07)
 number of electron      54.0000001 magnetization       6.0003031
 augmentation part       -0.5208652 magnetization       4.1918289

 Broyden mixing:
  rms(total) = 0.18741E-03    rms(broyden)= 0.18741E-03
  rms(prec ) = 0.26208E-03
  weight for this iteration     100.00

 eigenvalues of (default mixing * dielectric matrix)
  average eigenvalue GAMMA=   1.8217
  8.7631  6.1532  2.6289  2.6289  1.8793  1.8793  1.4863  1.2943  1.0882  0.4004
  0.9364  0.9364  0.4818  0.7437  0.7437  0.6183  0.6183  0.6657  0.6657

 Free energy of the ion-electron system (eV)
  ---------------------------------------------------
  alpha Z        PSCENC =        23.01523305
  Ewald energy   TEWEN  =      7534.95570762
  -Hartree energ DENC   =    -10198.00714705
  -exchange      EXHF   =         0.00000000
  -V(xc)+E(xc)   XCENC  =        85.61028095
  PAW double counting   =      3567.86510792    -3530.40057332
  entropy T*S    EENTRO =        -0.00000000
  eigenvalues    EBANDS =      -533.93173980
  atomic energy  EATOM  =      3012.10669636
  Solvation  Ediel_sol  =         0.00000000
  ---------------------------------------------------
  free energy    TOTEN  =       -38.78643426 eV

  energy without entropy =      -38.78643426  energy(sigma->0) =      -38.78643426


--------------------------------------------------------------------------------------------------------




--------------------------------------- Iteration      1(  25)  ---------------------------------------


    POTLOK:  cpu time      1.2001: real time      5.9900
    SETDIJ:  cpu time      0.1045: real time      0.5180
     EDDAV:  cpu time    232.8754: real time   1164.1740
       DOS:  cpu time      0.1723: real time      0.8776
    CHARGE:  cpu time      6.6003: real time     33.0933
    MIXING:  cpu time      0.5093: real time      2.5230
    --------------------------------------------
      LOOP:  cpu time    241.4620: real time   1207.1760

 eigenvalue-minimisations  : 17556
 total energy-change (2. order) :-0.3270303E-04  (-0.9678658E-07)
 number of electron      54.0000001 magnetization       6.0000371
 augmentation part       -0.5208302 magnetization       4.1915640

 Broyden mixing:
  rms(total) = 0.11018E-03    rms(broyden)= 0.11018E-03
  rms(prec ) = 0.14518E-03
  weight for this iteration     100.00

 eigenvalues of (default mixing * dielectric matrix)
  average eigenvalue GAMMA=   1.9192
  8.7627  6.6295  3.7568  2.6378  2.6378  1.8837  1.8837  1.2492  1.2492  0.9819
  0.9819  0.4004  0.7832  0.7832  0.4818  0.7416  0.6639  0.6171  0.6171  0.6422

 Free energy of the ion-electron system (eV)
  ---------------------------------------------------
  alpha Z        PSCENC =        23.01523305
  Ewald energy   TEWEN  =      7534.95570762
  -Hartree energ DENC   =    -10197.95442219
  -exchange      EXHF   =         0.00000000
  -V(xc)+E(xc)   XCENC  =        85.61016559
  PAW double counting   =      3567.95158437    -3530.48700130
  entropy T*S    EENTRO =        -0.00000000
  eigenvalues    EBANDS =      -533.98443048
  atomic energy  EATOM  =      3012.10669636
  Solvation  Ediel_sol  =         0.00000000
  ---------------------------------------------------
  free energy    TOTEN  =       -38.78646696 eV

  energy without entropy =      -38.78646696  energy(sigma->0) =      -38.78646696


--------------------------------------------------------------------------------------------------------




--------------------------------------- Iteration      1(  26)  ---------------------------------------


    POTLOK:  cpu time      1.1589: real time      5.8010
    SETDIJ:  cpu time      0.1655: real time      0.8280
     EDDAV:  cpu time    217.7612: real time   1088.7200
       DOS:  cpu time      0.2068: real time      1.0415
    CHARGE:  cpu time      6.6223: real time     33.1116
    MIXING:  cpu time      0.4774: real time      2.3988
    --------------------------------------------
      LOOP:  cpu time    226.3921: real time   1131.9011

 eigenvalue-minimisations  : 16170
 total energy-change (2. order) :-0.1965591E-04  (-0.1113104E-06)
 number of electron      54.0000001 magnetization       6.0000084
 augmentation part       -0.5208325 magnetization       4.1915559

 Broyden mixing:
  rms(total) = 0.66271E-04    rms(broyden)= 0.66270E-04
  rms(prec ) = 0.75163E-04
  weight for this iteration     100.00

 eigenvalues of (default mixing * dielectric matrix)
  average eigenvalue GAMMA=   1.9516
  8.7692  7.8755  4.3766  2.5641  2.5641  1.8049  1.7976  1.5002  1.1124  1.1124
  0.4004  0.9078  0.9078  0.7907  0.7907  0.4818  0.6961  0.6748  0.6196  0.6196
  0.6174

 Free energy of the ion-electron system (eV)
  ---------------------------------------------------
  alpha Z        PSCENC =        23.01523305
  Ewald energy   TEWEN  =      7534.95570762
  -Hartree energ DENC   =    -10197.90868569
  -exchange      EXHF   =         0.00000000
  -V(xc)+E(xc)   XCENC  =        85.61027218
  PAW double counting   =      3567.98362574    -3530.51915006
  entropy T*S    EENTRO =        -0.00000000
  eigenvalues    EBANDS =      -534.03018583
  atomic energy  EATOM  =      3012.10669636
  Solvation  Ediel_sol  =         0.00000000
  ---------------------------------------------------
  free energy    TOTEN  =       -38.78648662 eV

  energy without entropy =      -38.78648662  energy(sigma->0) =      -38.78648662


--------------------------------------------------------------------------------------------------------




--------------------------------------- Iteration      1(  27)  ---------------------------------------


    POTLOK:  cpu time      1.1538: real time      5.7541
    SETDIJ:  cpu time      0.1339: real time      0.6759
